# vtk DataFile Version 4.1
vtk output
ASCII
DATASET UNSTRUCTURED_GRID

POINTS	360	float
0	0	0	
0	0.05	0	
0	0.1	0	
0	0.15	0	
0	0.2	0	
0	0.25	0	
0	0.3	0	
0	0.35	0	
0	0.4	0	
0	0.45	0	
0	0.5	0	
0	0.55	0	
0	0.6	0	
0	0.65	0	
0	0.7	0	
0	0.75	0	
0	0.8	0	
0	0.85	0	
0	0.9	0	
0	0.95	0	
0	1	0	
0.05	0	0	
0.05	0.05	0	
0.05	0.1	0	
0.05	0.15	0	
0.05	0.2	0	
0.05	0.25	0	
0.05	0.3	0	
0.05	0.35	0	
0.05	0.4	0	
0.05	0.45	0	
0.05	0.5	0	
0.05	0.55	0	
0.05	0.6	0	
0.05	0.65	0	
0.05	0.7	0	
0.05	0.75	0	
0.05	0.8	0	
0.05	0.85	0	
0.05	0.9	0	
0.05	0.95	0	
0.05	1	0	
0.1	0	0	
0.1	0.05	0	
0.1	0.1	0	
0.1	0.15	0	
0.1	0.2	0	
0.1	0.25	0	
0.1	0.3	0	
0.1	0.35	0	
0.1	0.4	0	
0.1	0.45	0	
0.1	0.5	0	
0.1	0.55	0	
0.1	0.6	0	
0.1	0.65	0	
0.1	0.7	0	
0.1	0.75	0	
0.1	0.8	0	
0.1	0.85	0	
0.1	0.9	0	
0.1	0.95	0	
0.1	1	0	
0.15	0	0	
0.15	0.05	0	
0.15	0.1	0	
0.15	0.15	0	
0.15	0.2	0	
0.15	0.25	0	
0.15	0.3	0	
0.15	0.35	0	
0.15	0.4	0	
0.15	0.45	0	
0.15	0.5	0	
0.15	0.55	0	
0.15	0.6	0	
0.15	0.65	0	
0.15	0.7	0	
0.15	0.75	0	
0.15	0.8	0	
0.15	0.85	0	
0.15	0.9	0	
0.15	0.95	0	
0.15	1	0	
0.2	0	0	
0.2	0.05	0	
0.2	0.1	0	
0.2	0.15	0	
0.2	0.2	0	
0.2	0.25	0	
0.2	0.3	0	
0.2	0.35	0	
0.2	0.4	0	
0.2	0.45	0	
0.2	0.5	0	
0.2	0.55	0	
0.2	0.6	0	
0.2	0.65	0	
0.2	0.7	0	
0.2	0.75	0	
0.2	0.8	0	
0.2	0.85	0	
0.2	0.9	0	
0.2	0.95	0	
0.2	1	0	
0.25	0	0	
0.25	0.05	0	
0.25	0.1	0	
0.25	0.15	0	
0.25	0.2	0	
0.25	0.25	0	
0.25	0.3	0	
0.25	0.35	0	
0.25	0.4	0	
0.25	0.45	0	
0.25	0.5	0	
0.25	0.55	0	
0.25	0.6	0	
0.25	0.65	0	
0.25	0.7	0	
0.25	0.75	0	
0.25	0.8	0	
0.25	0.85	0	
0.25	0.9	0	
0.25	0.95	0	
0.25	1	0	
0.3	0	0	
0.3	0.05	0	
0.3	0.1	0	
0.3	0.15	0	
0.3	0.2	0	
0.3	0.25	0	
0.3	0.75	0	
0.3	0.8	0	
0.3	0.85	0	
0.3	0.9	0	
0.3	0.95	0	
0.3	1	0	
0.35	0	0	
0.35	0.05	0	
0.35	0.1	0	
0.35	0.15	0	
0.35	0.2	0	
0.35	0.25	0	
0.35	0.75	0	
0.35	0.8	0	
0.35	0.85	0	
0.35	0.9	0	
0.35	0.95	0	
0.35	1	0	
0.4	0	0	
0.4	0.05	0	
0.4	0.1	0	
0.4	0.15	0	
0.4	0.2	0	
0.4	0.25	0	
0.4	0.75	0	
0.4	0.8	0	
0.4	0.85	0	
0.4	0.9	0	
0.4	0.95	0	
0.4	1	0	
0.45	0	0	
0.45	0.05	0	
0.45	0.1	0	
0.45	0.15	0	
0.45	0.2	0	
0.45	0.25	0	
0.45	0.75	0	
0.45	0.8	0	
0.45	0.85	0	
0.45	0.9	0	
0.45	0.95	0	
0.45	1	0	
0.5	0	0	
0.5	0.05	0	
0.5	0.1	0	
0.5	0.15	0	
0.5	0.2	0	
0.5	0.25	0	
0.5	0.75	0	
0.5	0.8	0	
0.5	0.85	0	
0.5	0.9	0	
0.5	0.95	0	
0.5	1	0	
0.55	0	0	
0.55	0.05	0	
0.55	0.1	0	
0.55	0.15	0	
0.55	0.2	0	
0.55	0.25	0	
0.55	0.75	0	
0.55	0.8	0	
0.55	0.85	0	
0.55	0.9	0	
0.55	0.95	0	
0.55	1	0	
0.6	0	0	
0.6	0.05	0	
0.6	0.1	0	
0.6	0.15	0	
0.6	0.2	0	
0.6	0.25	0	
0.6	0.75	0	
0.6	0.8	0	
0.6	0.85	0	
0.6	0.9	0	
0.6	0.95	0	
0.6	1	0	
0.65	0	0	
0.65	0.05	0	
0.65	0.1	0	
0.65	0.15	0	
0.65	0.2	0	
0.65	0.25	0	
0.65	0.75	0	
0.65	0.8	0	
0.65	0.85	0	
0.65	0.9	0	
0.65	0.95	0	
0.65	1	0	
0.7	0	0	
0.7	0.05	0	
0.7	0.1	0	
0.7	0.15	0	
0.7	0.2	0	
0.7	0.25	0	
0.7	0.75	0	
0.7	0.8	0	
0.7	0.85	0	
0.7	0.9	0	
0.7	0.95	0	
0.7	1	0	
0.75	0	0	
0.75	0.05	0	
0.75	0.1	0	
0.75	0.15	0	
0.75	0.2	0	
0.75	0.25	0	
0.75	0.3	0	
0.75	0.35	0	
0.75	0.4	0	
0.75	0.45	0	
0.75	0.5	0	
0.75	0.55	0	
0.75	0.6	0	
0.75	0.65	0	
0.75	0.7	0	
0.75	0.75	0	
0.75	0.8	0	
0.75	0.85	0	
0.75	0.9	0	
0.75	0.95	0	
0.75	1	0	
0.8	0	0	
0.8	0.05	0	
0.8	0.1	0	
0.8	0.15	0	
0.8	0.2	0	
0.8	0.25	0	
0.8	0.3	0	
0.8	0.35	0	
0.8	0.4	0	
0.8	0.45	0	
0.8	0.5	0	
0.8	0.55	0	
0.8	0.6	0	
0.8	0.65	0	
0.8	0.7	0	
0.8	0.75	0	
0.8	0.8	0	
0.8	0.85	0	
0.8	0.9	0	
0.8	0.95	0	
0.8	1	0	
0.85	0	0	
0.85	0.05	0	
0.85	0.1	0	
0.85	0.15	0	
0.85	0.2	0	
0.85	0.25	0	
0.85	0.3	0	
0.85	0.35	0	
0.85	0.4	0	
0.85	0.45	0	
0.85	0.5	0	
0.85	0.55	0	
0.85	0.6	0	
0.85	0.65	0	
0.85	0.7	0	
0.85	0.75	0	
0.85	0.8	0	
0.85	0.85	0	
0.85	0.9	0	
0.85	0.95	0	
0.85	1	0	
0.9	0	0	
0.9	0.05	0	
0.9	0.1	0	
0.9	0.15	0	
0.9	0.2	0	
0.9	0.25	0	
0.9	0.3	0	
0.9	0.35	0	
0.9	0.4	0	
0.9	0.45	0	
0.9	0.5	0	
0.9	0.55	0	
0.9	0.6	0	
0.9	0.65	0	
0.9	0.7	0	
0.9	0.75	0	
0.9	0.8	0	
0.9	0.85	0	
0.9	0.9	0	
0.9	0.95	0	
0.9	1	0	
0.95	0	0	
0.95	0.05	0	
0.95	0.1	0	
0.95	0.15	0	
0.95	0.2	0	
0.95	0.25	0	
0.95	0.3	0	
0.95	0.35	0	
0.95	0.4	0	
0.95	0.45	0	
0.95	0.5	0	
0.95	0.55	0	
0.95	0.6	0	
0.95	0.65	0	
0.95	0.7	0	
0.95	0.75	0	
0.95	0.8	0	
0.95	0.85	0	
0.95	0.9	0	
0.95	0.95	0	
0.95	1	0	
1	0	0	
1	0.05	0	
1	0.1	0	
1	0.15	0	
1	0.2	0	
1	0.25	0	
1	0.3	0	
1	0.35	0	
1	0.4	0	
1	0.45	0	
1	0.5	0	
1	0.55	0	
1	0.6	0	
1	0.65	0	
1	0.7	0	
1	0.75	0	
1	0.8	0	
1	0.85	0	
1	0.9	0	
1	0.95	0	
1	1	0	

CELLS 300	1500
4	0	21	22	1	
4	1	22	23	2	
4	2	23	24	3	
4	3	24	25	4	
4	4	25	26	5	
4	5	26	27	6	
4	6	27	28	7	
4	7	28	29	8	
4	8	29	30	9	
4	9	30	31	10	
4	10	31	32	11	
4	11	32	33	12	
4	12	33	34	13	
4	13	34	35	14	
4	14	35	36	15	
4	15	36	37	16	
4	16	37	38	17	
4	17	38	39	18	
4	18	39	40	19	
4	19	40	41	20	
4	21	42	43	22	
4	22	43	44	23	
4	23	44	45	24	
4	24	45	46	25	
4	25	46	47	26	
4	26	47	48	27	
4	27	48	49	28	
4	28	49	50	29	
4	29	50	51	30	
4	30	51	52	31	
4	31	52	53	32	
4	32	53	54	33	
4	33	54	55	34	
4	34	55	56	35	
4	35	56	57	36	
4	36	57	58	37	
4	37	58	59	38	
4	38	59	60	39	
4	39	60	61	40	
4	40	61	62	41	
4	42	63	64	43	
4	43	64	65	44	
4	44	65	66	45	
4	45	66	67	46	
4	46	67	68	47	
4	47	68	69	48	
4	48	69	70	49	
4	49	70	71	50	
4	50	71	72	51	
4	51	72	73	52	
4	52	73	74	53	
4	53	74	75	54	
4	54	75	76	55	
4	55	76	77	56	
4	56	77	78	57	
4	57	78	79	58	
4	58	79	80	59	
4	59	80	81	60	
4	60	81	82	61	
4	61	82	83	62	
4	63	84	85	64	
4	64	85	86	65	
4	65	86	87	66	
4	66	87	88	67	
4	67	88	89	68	
4	68	89	90	69	
4	69	90	91	70	
4	70	91	92	71	
4	71	92	93	72	
4	72	93	94	73	
4	73	94	95	74	
4	74	95	96	75	
4	75	96	97	76	
4	76	97	98	77	
4	77	98	99	78	
4	78	99	100	79	
4	79	100	101	80	
4	80	101	102	81	
4	81	102	103	82	
4	82	103	104	83	
4	84	105	106	85	
4	85	106	107	86	
4	86	107	108	87	
4	87	108	109	88	
4	88	109	110	89	
4	89	110	111	90	
4	90	111	112	91	
4	91	112	113	92	
4	92	113	114	93	
4	93	114	115	94	
4	94	115	116	95	
4	95	116	117	96	
4	96	117	118	97	
4	97	118	119	98	
4	98	119	120	99	
4	99	120	121	100	
4	100	121	122	101	
4	101	122	123	102	
4	102	123	124	103	
4	103	124	125	104	
4	105	126	127	106	
4	106	127	128	107	
4	107	128	129	108	
4	108	129	130	109	
4	109	130	131	110	
4	120	132	133	121	
4	121	133	134	122	
4	122	134	135	123	
4	123	135	136	124	
4	124	136	137	125	
4	126	138	139	127	
4	127	139	140	128	
4	128	140	141	129	
4	129	141	142	130	
4	130	142	143	131	
4	132	144	145	133	
4	133	145	146	134	
4	134	146	147	135	
4	135	147	148	136	
4	136	148	149	137	
4	138	150	151	139	
4	139	151	152	140	
4	140	152	153	141	
4	141	153	154	142	
4	142	154	155	143	
4	144	156	157	145	
4	145	157	158	146	
4	146	158	159	147	
4	147	159	160	148	
4	148	160	161	149	
4	150	162	163	151	
4	151	163	164	152	
4	152	164	165	153	
4	153	165	166	154	
4	154	166	167	155	
4	156	168	169	157	
4	157	169	170	158	
4	158	170	171	159	
4	159	171	172	160	
4	160	172	173	161	
4	162	174	175	163	
4	163	175	176	164	
4	164	176	177	165	
4	165	177	178	166	
4	166	178	179	167	
4	168	180	181	169	
4	169	181	182	170	
4	170	182	183	171	
4	171	183	184	172	
4	172	184	185	173	
4	174	186	187	175	
4	175	187	188	176	
4	176	188	189	177	
4	177	189	190	178	
4	178	190	191	179	
4	180	192	193	181	
4	181	193	194	182	
4	182	194	195	183	
4	183	195	196	184	
4	184	196	197	185	
4	186	198	199	187	
4	187	199	200	188	
4	188	200	201	189	
4	189	201	202	190	
4	190	202	203	191	
4	192	204	205	193	
4	193	205	206	194	
4	194	206	207	195	
4	195	207	208	196	
4	196	208	209	197	
4	198	210	211	199	
4	199	211	212	200	
4	200	212	213	201	
4	201	213	214	202	
4	202	214	215	203	
4	204	216	217	205	
4	205	217	218	206	
4	206	218	219	207	
4	207	219	220	208	
4	208	220	221	209	
4	210	222	223	211	
4	211	223	224	212	
4	212	224	225	213	
4	213	225	226	214	
4	214	226	227	215	
4	216	228	229	217	
4	217	229	230	218	
4	218	230	231	219	
4	219	231	232	220	
4	220	232	233	221	
4	222	234	235	223	
4	223	235	236	224	
4	224	236	237	225	
4	225	237	238	226	
4	226	238	239	227	
4	228	249	250	229	
4	229	250	251	230	
4	230	251	252	231	
4	231	252	253	232	
4	232	253	254	233	
4	234	255	256	235	
4	235	256	257	236	
4	236	257	258	237	
4	237	258	259	238	
4	238	259	260	239	
4	239	260	261	240	
4	240	261	262	241	
4	241	262	263	242	
4	242	263	264	243	
4	243	264	265	244	
4	244	265	266	245	
4	245	266	267	246	
4	246	267	268	247	
4	247	268	269	248	
4	248	269	270	249	
4	249	270	271	250	
4	250	271	272	251	
4	251	272	273	252	
4	252	273	274	253	
4	253	274	275	254	
4	255	276	277	256	
4	256	277	278	257	
4	257	278	279	258	
4	258	279	280	259	
4	259	280	281	260	
4	260	281	282	261	
4	261	282	283	262	
4	262	283	284	263	
4	263	284	285	264	
4	264	285	286	265	
4	265	286	287	266	
4	266	287	288	267	
4	267	288	289	268	
4	268	289	290	269	
4	269	290	291	270	
4	270	291	292	271	
4	271	292	293	272	
4	272	293	294	273	
4	273	294	295	274	
4	274	295	296	275	
4	276	297	298	277	
4	277	298	299	278	
4	278	299	300	279	
4	279	300	301	280	
4	280	301	302	281	
4	281	302	303	282	
4	282	303	304	283	
4	283	304	305	284	
4	284	305	306	285	
4	285	306	307	286	
4	286	307	308	287	
4	287	308	309	288	
4	288	309	310	289	
4	289	310	311	290	
4	290	311	312	291	
4	291	312	313	292	
4	292	313	314	293	
4	293	314	315	294	
4	294	315	316	295	
4	295	316	317	296	
4	297	318	319	298	
4	298	319	320	299	
4	299	320	321	300	
4	300	321	322	301	
4	301	322	323	302	
4	302	323	324	303	
4	303	324	325	304	
4	304	325	326	305	
4	305	326	327	306	
4	306	327	328	307	
4	307	328	329	308	
4	308	329	330	309	
4	309	330	331	310	
4	310	331	332	311	
4	311	332	333	312	
4	312	333	334	313	
4	313	334	335	314	
4	314	335	336	315	
4	315	336	337	316	
4	316	337	338	317	
4	318	339	340	319	
4	319	340	341	320	
4	320	341	342	321	
4	321	342	343	322	
4	322	343	344	323	
4	323	344	345	324	
4	324	345	346	325	
4	325	346	347	326	
4	326	347	348	327	
4	327	348	349	328	
4	328	349	350	329	
4	329	350	351	330	
4	330	351	352	331	
4	331	352	353	332	
4	332	353	354	333	
4	333	354	355	334	
4	334	355	356	335	
4	335	356	357	336	
4	336	357	358	337	
4	337	358	359	338	

CELL_TYPES	300
9
9
9
9
9
9
9
9
9
9
9
9
9
9
9
9
9
9
9
9
9
9
9
9
9
9
9
9
9
9
9
9
9
9
9
9
9
9
9
9
9
9
9
9
9
9
9
9
9
9
9
9
9
9
9
9
9
9
9
9
9
9
9
9
9
9
9
9
9
9
9
9
9
9
9
9
9
9
9
9
9
9
9
9
9
9
9
9
9
9
9
9
9
9
9
9
9
9
9
9
9
9
9
9
9
9
9
9
9
9
9
9
9
9
9
9
9
9
9
9
9
9
9
9
9
9
9
9
9
9
9
9
9
9
9
9
9
9
9
9
9
9
9
9
9
9
9
9
9
9
9
9
9
9
9
9
9
9
9
9
9
9
9
9
9
9
9
9
9
9
9
9
9
9
9
9
9
9
9
9
9
9
9
9
9
9
9
9
9
9
9
9
9
9
9
9
9
9
9
9
9
9
9
9
9
9
9
9
9
9
9
9
9
9
9
9
9
9
9
9
9
9
9
9
9
9
9
9
9
9
9
9
9
9
9
9
9
9
9
9
9
9
9
9
9
9
9
9
9
9
9
9
9
9
9
9
9
9
9
9
9
9
9
9
9
9
9
9
9
9
9
9
9
9
9
9
9
9
9
9
9
9
9
9
9
9
9
9
9
9
9
9
9
9
9
9
9
9
9
9

POINT_DATA	360
VECTORS chi0 float
6.38617e-015	1.07645e-014	0	
-3.07738e-011	0.0162082	0	
-5.9417e-011	0.0318499	0	
-8.35893e-011	0.0459686	0	
-1.0073e-010	0.0569968	0	
-1.08388e-010	0.0629316	0	
-1.04938e-010	0.0620951	0	
-9.02752e-011	0.0539847	0	
-6.59567e-011	0.0395924	0	
-3.47442e-011	0.0208602	0	
7.51433e-015	1.06373e-014	0	
3.47591e-011	-0.0208602	0	
6.59715e-011	-0.0395924	0	
9.02899e-011	-0.0539847	0	
1.04953e-010	-0.0620951	0	
1.08402e-010	-0.0629316	0	
1.00743e-010	-0.0569968	0	
8.36027e-011	-0.0459686	0	
5.94301e-011	-0.0318499	0	
3.07867e-011	-0.0162082	0	
6.38617e-015	1.07645e-014	0	
0.00160513	-2.31998e-011	0	
0.00206763	0.0158179	0	
0.00369097	0.0311734	0	
0.00714438	0.0452308	0	
0.0132313	0.0564423	0	
0.02218	0.0626548	0	
0.0328706	0.0618986	0	
0.0431077	0.0536634	0	
0.0509802	0.0391409	0	
0.055681	0.0205295	0	
0.0572155	-4.82383e-011	0	
0.055681	-0.0205295	0	
0.0509802	-0.0391409	0	
0.0431077	-0.0536634	0	
0.0328706	-0.0618986	0	
0.02218	-0.0626548	0	
0.0132313	-0.0564423	0	
0.00714438	-0.0452308	0	
0.00369097	-0.0311734	0	
0.00206763	-0.0158179	0	
0.00160513	-2.31998e-011	0	
0.00354222	-4.40491e-011	0	
0.00435546	0.0146728	0	
0.00721215	0.0290932	0	
0.0134501	0.0427906	0	
0.0251495	0.0544897	0	
0.0434439	0.0614826	0	
0.0660436	0.060945	0	
0.0873089	0.0520807	0	
0.102911	0.0372235	0	
0.111792	0.019162	0	
0.114582	-9.46622e-011	0	
0.111792	-0.019162	0	
0.102911	-0.0372235	0	
0.0873089	-0.0520807	0	
0.0660436	-0.060945	0	
0.0434439	-0.0614826	0	
0.0251495	-0.0544897	0	
0.0134501	-0.0427906	0	
0.00721216	-0.0290932	0	
0.00435546	-0.0146728	0	
0.00354222	-4.40491e-011	0	
0.00606885	-6.03595e-011	0	
0.00712009	0.0130013	0	
0.0106771	0.0257382	0	
0.0184196	0.0382155	0	
0.0341778	0.05008	0	
0.0625609	0.058515	0	
0.100376	0.0575947	0	
0.134208	0.0472876	0	
0.156588	0.0317775	0	
0.168102	0.0158381	0	
0.171656	-1.37449e-010	0	
0.168102	-0.0158381	0	
0.156588	-0.0317775	0	
0.134208	-0.0472876	0	
0.100376	-0.0575947	0	
0.0625609	-0.058515	0	
0.0341778	-0.05008	0	
0.0184196	-0.0382155	0	
0.0106771	-0.0257382	0	
0.00712009	-0.0130013	0	
0.00606885	-6.03595e-011	0	
0.00916914	-7.03744e-011	0	
0.0104021	0.0114522	0	
0.0144895	0.0223231	0	
0.0225567	0.0321393	0	
0.0392107	0.0419359	0	
0.0765641	0.0505523	0	
0.139221	0.0490438	0	
0.186448	0.0328119	0	
0.210987	0.020275	0	
0.223418	0.00975712	0	
0.227152	-1.74886e-010	0	
0.223418	-0.00975712	0	
0.210987	-0.020275	0	
0.186448	-0.0328119	0	
0.139221	-0.0490438	0	
0.0765641	-0.0505523	0	
0.0392107	-0.0419359	0	
0.0225567	-0.0321393	0	
0.0144895	-0.0223231	0	
0.0104021	-0.0114522	0	
0.00916914	-7.03744e-011	0	
0.0122622	-7.30513e-011	0	
0.013695	0.0110271	0	
0.0182144	0.0212499	0	
0.0270595	0.0297015	0	
0.0413187	0.0342976	0	
0.082783	0.035144	0	
0.195151	0.0092446	0	
0.238217	0.00383692	0	
0.263505	0.00299238	0	
0.275894	0.00174716	0	
0.279706	-2.05678e-010	0	
0.275894	-0.00174716	0	
0.263505	-0.00299238	0	
0.238217	-0.00383692	0	
0.195151	-0.0092446	0	
0.082783	-0.035144	0	
0.0413187	-0.0342976	0	
0.0270595	-0.0297015	0	
0.0182144	-0.0212499	0	
0.013695	-0.0110271	0	
0.0122622	-7.30513e-011	0	
0.0142787	-6.83099e-011	0	
0.0157642	0.0123506	0	
0.0204301	0.0244031	0	
0.0284338	0.0361688	0	
0.0417257	0.049217	0	
0.0408664	0.0780131	0	
0.0408664	-0.0780131	0	
0.0417257	-0.049217	0	
0.0284338	-0.0361688	0	
0.0204301	-0.0244031	0	
0.0157642	-0.0123506	0	
0.0142787	-6.83099e-011	0	
0.0141219	-5.70314e-011	0	
0.0154341	0.0150067	0	
0.0192472	0.0305251	0	
0.0252129	0.0476093	0	
0.0290797	0.0695582	0	
0.0224665	0.094758	0	
0.0224665	-0.094758	0	
0.0290797	-0.0695582	0	
0.0252129	-0.0476093	0	
0.0192472	-0.0305251	0	
0.0154341	-0.0150067	0	
0.0141219	-5.70314e-011	0	
0.011343	-4.07352e-011	0	
0.0122426	0.01788	0	
0.0147266	0.0367104	0	
0.0175404	0.0577105	0	
0.0179805	0.0812763	0	
0.0128032	0.106231	0	
0.0128032	-0.106231	0	
0.0179805	-0.0812763	0	
0.0175404	-0.0577105	0	
0.0147266	-0.0367104	0	
0.0122426	-0.01788	0	
0.011343	-4.07352e-011	0	
0.00630317	-2.11585e-011	0	
0.00674611	0.0199508	0	
0.00784506	0.040912	0	
0.00886758	0.0635474	0	
0.00856816	0.0877533	0	
0.005891	0.112185	0	
0.005891	-0.112185	0	
0.00856816	-0.0877533	0	
0.00886758	-0.0635474	0	
0.00784506	-0.040912	0	
0.00674611	-0.0199508	0	
0.00630317	-2.11585e-011	0	
6.17308e-015	1.15965e-014	0	
-2.65138e-011	0.0206922	0	
-5.29211e-011	0.0423318	0	
-7.88506e-011	0.0654614	0	
-1.03385e-010	0.0897791	0	
-1.24975e-010	0.114093	0	
1.24987e-010	-0.114093	0	
1.03398e-010	-0.0897791	0	
7.88632e-011	-0.0654614	0	
5.29336e-011	-0.0423318	0	
2.65262e-011	-0.0206922	0	
6.17308e-015	1.15965e-014	0	
-0.00630317	2.11816e-011	0	
-0.00674611	0.0199508	0	
-0.00784506	0.040912	0	
-0.00886758	0.0635474	0	
-0.00856816	0.0877533	0	
-0.005891	0.112185	0	
-0.005891	-0.112185	0	
-0.00856816	-0.0877533	0	
-0.00886758	-0.0635474	0	
-0.00784506	-0.040912	0	
-0.00674611	-0.0199508	0	
-0.00630317	2.11816e-011	0	
-0.011343	4.07584e-011	0	
-0.0122426	0.01788	0	
-0.0147266	0.0367104	0	
-0.0175404	0.0577105	0	
-0.0179805	0.0812763	0	
-0.0128032	0.106231	0	
-0.0128032	-0.106231	0	
-0.0179805	-0.0812763	0	
-0.0175404	-0.0577105	0	
-0.0147266	-0.0367104	0	
-0.0122426	-0.01788	0	
-0.011343	4.07584e-011	0	
-0.0141219	5.70545e-011	0	
-0.0154341	0.0150067	0	
-0.0192472	0.0305251	0	
-0.0252129	0.0476093	0	
-0.0290797	0.0695582	0	
-0.0224665	0.094758	0	
-0.0224665	-0.094758	0	
-0.0290797	-0.0695582	0	
-0.0252129	-0.0476093	0	
-0.0192472	-0.0305251	0	
-0.0154341	-0.0150067	0	
-0.0141219	5.70545e-011	0	
-0.0142787	6.83328e-011	0	
-0.0157642	0.0123506	0	
-0.0204301	0.0244031	0	
-0.0284338	0.0361688	0	
-0.0417257	0.049217	0	
-0.0408664	0.0780131	0	
-0.0408664	-0.0780131	0	
-0.0417257	-0.049217	0	
-0.0284338	-0.0361688	0	
-0.0204301	-0.0244031	0	
-0.0157642	-0.0123506	0	
-0.0142787	6.83328e-011	0	
-0.0122622	7.3074e-011	0	
-0.013695	0.0110271	0	
-0.0182144	0.0212499	0	
-0.0270595	0.0297015	0	
-0.0413187	0.0342976	0	
-0.082783	0.035144	0	
-0.195151	0.0092446	0	
-0.238217	0.00383692	0	
-0.263505	0.00299238	0	
-0.275894	0.00174716	0	
-0.279706	2.057e-010	0	
-0.275894	-0.00174716	0	
-0.263505	-0.00299238	0	
-0.238217	-0.00383692	0	
-0.195151	-0.0092446	0	
-0.082783	-0.035144	0	
-0.0413187	-0.0342976	0	
-0.0270595	-0.0297015	0	
-0.0182144	-0.0212499	0	
-0.013695	-0.0110271	0	
-0.0122622	7.3074e-011	0	
-0.00916914	7.03968e-011	0	
-0.0104021	0.0114522	0	
-0.0144895	0.0223231	0	
-0.0225567	0.0321393	0	
-0.0392107	0.0419359	0	
-0.0765641	0.0505523	0	
-0.139221	0.0490438	0	
-0.186448	0.0328119	0	
-0.210987	0.020275	0	
-0.223418	0.00975712	0	
-0.227152	1.74908e-010	0	
-0.223418	-0.00975712	0	
-0.210987	-0.020275	0	
-0.186448	-0.0328119	0	
-0.139221	-0.0490438	0	
-0.0765641	-0.0505523	0	
-0.0392107	-0.0419359	0	
-0.0225567	-0.0321393	0	
-0.0144895	-0.0223231	0	
-0.0104021	-0.0114522	0	
-0.00916914	7.03968e-011	0	
-0.00606885	6.03816e-011	0	
-0.00712009	0.0130013	0	
-0.0106771	0.0257382	0	
-0.0184196	0.0382155	0	
-0.0341778	0.05008	0	
-0.0625609	0.058515	0	
-0.100376	0.0575947	0	
-0.134208	0.0472876	0	
-0.156588	0.0317775	0	
-0.168102	0.0158381	0	
-0.171656	1.37471e-010	0	
-0.168102	-0.0158381	0	
-0.156588	-0.0317775	0	
-0.134208	-0.0472876	0	
-0.100376	-0.0575947	0	
-0.0625609	-0.058515	0	
-0.0341778	-0.05008	0	
-0.0184196	-0.0382155	0	
-0.0106771	-0.0257382	0	
-0.00712009	-0.0130013	0	
-0.00606885	6.03816e-011	0	
-0.00354222	4.40708e-011	0	
-0.00435546	0.0146728	0	
-0.00721216	0.0290932	0	
-0.0134501	0.0427906	0	
-0.0251495	0.0544897	0	
-0.0434439	0.0614826	0	
-0.0660436	0.060945	0	
-0.0873089	0.0520807	0	
-0.102911	0.0372235	0	
-0.111792	0.019162	0	
-0.114582	9.46837e-011	0	
-0.111792	-0.019162	0	
-0.102911	-0.0372235	0	
-0.0873089	-0.0520807	0	
-0.0660436	-0.060945	0	
-0.0434439	-0.0614826	0	
-0.0251495	-0.0544897	0	
-0.0134501	-0.0427906	0	
-0.00721215	-0.0290932	0	
-0.00435546	-0.0146728	0	
-0.00354222	4.40708e-011	0	
-0.00160513	2.32214e-011	0	
-0.00206763	0.0158179	0	
-0.00369097	0.0311734	0	
-0.00714438	0.0452308	0	
-0.0132313	0.0564423	0	
-0.02218	0.0626548	0	
-0.0328706	0.0618986	0	
-0.0431077	0.0536634	0	
-0.0509802	0.0391409	0	
-0.055681	0.0205295	0	
-0.0572155	4.82596e-011	0	
-0.055681	-0.0205295	0	
-0.0509802	-0.0391409	0	
-0.0431077	-0.0536634	0	
-0.0328706	-0.0618986	0	
-0.02218	-0.0626548	0	
-0.0132313	-0.0564423	0	
-0.00714438	-0.0452308	0	
-0.00369097	-0.0311734	0	
-0.00206763	-0.0158179	0	
-0.00160513	2.32214e-011	0	
6.38617e-015	1.07645e-014	0	
-3.07738e-011	0.0162082	0	
-5.9417e-011	0.0318499	0	
-8.35893e-011	0.0459686	0	
-1.0073e-010	0.0569968	0	
-1.08388e-010	0.0629316	0	
-1.04938e-010	0.0620951	0	
-9.02752e-011	0.0539847	0	
-6.59567e-011	0.0395924	0	
-3.47442e-011	0.0208602	0	
7.51433e-015	1.06373e-014	0	
3.47591e-011	-0.0208602	0	
6.59715e-011	-0.0395924	0	
9.02899e-011	-0.0539847	0	
1.04953e-010	-0.0620951	0	
1.08402e-010	-0.0629316	0	
1.00743e-010	-0.0569968	0	
8.36027e-011	-0.0459686	0	
5.94301e-011	-0.0318499	0	
3.07867e-011	-0.0162082	0	
6.38617e-015	1.07645e-014	0	
VECTORS chi1 float
-1.36002e-015	2.23405e-014	0	
-2.32135e-011	0.00160513	0	
-4.40643e-011	0.00354222	0	
-6.0376e-011	0.00606885	0	
-7.03917e-011	0.00916914	0	
-7.30691e-011	0.0122622	0	
-6.83275e-011	0.0142787	0	
-5.70483e-011	0.0141219	0	
-4.0751e-011	0.011343	0	
-2.11728e-011	0.00630317	0	
-1.12076e-015	2.2005e-014	0	
2.11705e-011	-0.00630317	0	
4.07487e-011	-0.011343	0	
5.70459e-011	-0.0141219	0	
6.8325e-011	-0.0142787	0	
7.30665e-011	-0.0122622	0	
7.03891e-011	-0.00916914	0	
6.03733e-011	-0.00606885	0	
4.40616e-011	-0.00354222	0	
2.32108e-011	-0.00160513	0	
-1.36002e-015	2.23405e-014	0	
0.0162082	-3.07574e-011	0	
0.0158179	0.00206763	0	
0.0146728	0.00435546	0	
0.0130013	0.00712009	0	
0.0114522	0.0104021	0	
0.0110271	0.013695	0	
0.0123506	0.0157642	0	
0.0150067	0.0154341	0	
0.01788	0.0122426	0	
0.0199508	0.00674611	0	
0.0206922	-2.64977e-011	0	
0.0199508	-0.00674611	0	
0.01788	-0.0122426	0	
0.0150067	-0.0154341	0	
0.0123506	-0.0157642	0	
0.0110271	-0.013695	0	
0.0114522	-0.0104021	0	
0.0130013	-0.00712009	0	
0.0146728	-0.00435546	0	
0.0158179	-0.00206763	0	
0.0162082	-3.07574e-011	0	
0.0318499	-5.94003e-011	0	
0.0311734	0.00369097	0	
0.0290932	0.00721215	0	
0.0257382	0.0106771	0	
0.0223231	0.0144895	0	
0.0212499	0.0182144	0	
0.0244031	0.0204301	0	
0.0305251	0.0192472	0	
0.0367104	0.0147266	0	
0.040912	0.00784506	0	
0.0423318	-5.29045e-011	0	
0.040912	-0.00784506	0	
0.0367104	-0.0147266	0	
0.0305251	-0.0192472	0	
0.0244031	-0.0204301	0	
0.0212499	-0.0182144	0	
0.0223231	-0.0144895	0	
0.0257382	-0.0106771	0	
0.0290932	-0.00721216	0	
0.0311734	-0.00369097	0	
0.0318499	-5.94003e-011	0	
0.0459686	-8.3572e-011	0	
0.0452308	0.00714438	0	
0.0427906	0.0134501	0	
0.0382155	0.0184196	0	
0.0321393	0.0225567	0	
0.0297015	0.0270595	0	
0.0361688	0.0284338	0	
0.0476093	0.0252129	0	
0.0577105	0.0175404	0	
0.0635474	0.00886758	0	
0.0654614	-7.88335e-011	0	
0.0635474	-0.00886758	0	
0.0577105	-0.0175404	0	
0.0476093	-0.0252129	0	
0.0361688	-0.0284338	0	
0.0297015	-0.0270595	0	
0.0321393	-0.0225567	0	
0.0382155	-0.0184196	0	
0.0427906	-0.0134501	0	
0.0452308	-0.00714438	0	
0.0459686	-8.3572e-011	0	
0.0569968	-1.00712e-010	0	
0.0564423	0.0132313	0	
0.0544897	0.0251495	0	
0.05008	0.0341778	0	
0.0419359	0.0392107	0	
0.0342976	0.0413187	0	
0.049217	0.0417257	0	
0.0695582	0.0290797	0	
0.0812763	0.0179805	0	
0.0877533	0.00856816	0	
0.0897791	-1.03367e-010	0	
0.0877533	-0.00856816	0	
0.0812763	-0.0179805	0	
0.0695582	-0.0290797	0	
0.049217	-0.0417257	0	
0.0342976	-0.0413187	0	
0.0419359	-0.0392107	0	
0.05008	-0.0341778	0	
0.0544897	-0.0251495	0	
0.0564423	-0.0132313	0	
0.0569968	-1.00712e-010	0	
0.0629316	-1.0837e-010	0	
0.0626548	0.02218	0	
0.0614826	0.0434439	0	
0.058515	0.0625609	0	
0.0505523	0.0765641	0	
0.035144	0.082783	0	
0.0780131	0.0408664	0	
0.094758	0.0224665	0	
0.106231	0.0128032	0	
0.112185	0.005891	0	
0.114093	-1.24956e-010	0	
0.112185	-0.005891	0	
0.106231	-0.0128032	0	
0.094758	-0.0224665	0	
0.0780131	-0.0408664	0	
0.035144	-0.082783	0	
0.0505523	-0.0765641	0	
0.058515	-0.0625609	0	
0.0614826	-0.0434439	0	
0.0626548	-0.02218	0	
0.0629316	-1.0837e-010	0	
0.0620951	-1.0492e-010	0	
0.0618986	0.0328706	0	
0.060945	0.0660436	0	
0.0575947	0.100376	0	
0.0490438	0.139221	0	
0.0092446	0.195151	0	
0.0092446	-0.195151	0	
0.0490438	-0.139221	0	
0.0575947	-0.100376	0	
0.060945	-0.0660436	0	
0.0618986	-0.0328706	0	
0.0620951	-1.0492e-010	0	
0.0539847	-9.0257e-011	0	
0.0536634	0.0431077	0	
0.0520807	0.0873089	0	
0.0472876	0.134208	0	
0.0328119	0.186448	0	
0.00383692	0.238217	0	
0.00383692	-0.238217	0	
0.0328119	-0.186448	0	
0.0472876	-0.134208	0	
0.0520807	-0.0873089	0	
0.0536634	-0.0431077	0	
0.0539847	-9.0257e-011	0	
0.0395924	-6.59386e-011	0	
0.0391409	0.0509802	0	
0.0372235	0.102911	0	
0.0317775	0.156588	0	
0.020275	0.210987	0	
0.00299238	0.263505	0	
0.00299238	-0.263505	0	
0.020275	-0.210987	0	
0.0317775	-0.156588	0	
0.0372235	-0.102911	0	
0.0391409	-0.0509802	0	
0.0395924	-6.59386e-011	0	
0.0208602	-3.47264e-011	0	
0.0205295	0.055681	0	
0.019162	0.111792	0	
0.0158381	0.168102	0	
0.00975712	0.223418	0	
0.00174716	0.275894	0	
0.00174716	-0.275894	0	
0.00975712	-0.223418	0	
0.0158381	-0.168102	0	
0.019162	-0.111792	0	
0.0205295	-0.055681	0	
0.0208602	-3.47264e-011	0	
-1.3859e-015	2.51008e-014	0	
-4.82518e-011	0.0572155	0	
-9.46772e-011	0.114582	0	
-1.37465e-010	0.171656	0	
-1.74903e-010	0.227152	0	
-2.05695e-010	0.279706	0	
2.05692e-010	-0.279706	0	
1.749e-010	-0.227152	0	
1.37462e-010	-0.171656	0	
9.46744e-011	-0.114582	0	
4.8249e-011	-0.0572155	0	
-1.3859e-015	2.51008e-014	0	
-0.0208602	3.47764e-011	0	
-0.0205295	0.055681	0	
-0.019162	0.111792	0	
-0.0158381	0.168102	0	
-0.00975712	0.223418	0	
-0.00174716	0.275894	0	
-0.00174716	-0.275894	0	
-0.00975712	-0.223418	0	
-0.0158381	-0.168102	0	
-0.019162	-0.111792	0	
-0.0205295	-0.055681	0	
-0.0208602	3.47764e-011	0	
-0.0395924	6.59885e-011	0	
-0.0391409	0.0509802	0	
-0.0372235	0.102911	0	
-0.0317775	0.156588	0	
-0.020275	0.210987	0	
-0.00299238	0.263505	0	
-0.00299238	-0.263505	0	
-0.020275	-0.210987	0	
-0.0317775	-0.156588	0	
-0.0372235	-0.102911	0	
-0.0391409	-0.0509802	0	
-0.0395924	6.59885e-011	0	
-0.0539847	9.03065e-011	0	
-0.0536634	0.0431077	0	
-0.0520807	0.0873089	0	
-0.0472876	0.134208	0	
-0.0328119	0.186448	0	
-0.00383692	0.238217	0	
-0.00383692	-0.238217	0	
-0.0328119	-0.186448	0	
-0.0472876	-0.134208	0	
-0.0520807	-0.0873089	0	
-0.0536634	-0.0431077	0	
-0.0539847	9.03065e-011	0	
-0.0620951	1.04969e-010	0	
-0.0618986	0.0328706	0	
-0.060945	0.0660436	0	
-0.0575947	0.100376	0	
-0.0490438	0.139221	0	
-0.0092446	0.195151	0	
-0.0092446	-0.195151	0	
-0.0490438	-0.139221	0	
-0.0575947	-0.100376	0	
-0.060945	-0.0660436	0	
-0.0618986	-0.0328706	0	
-0.0620951	1.04969e-010	0	
-0.0629316	1.08418e-010	0	
-0.0626548	0.02218	0	
-0.0614826	0.0434439	0	
-0.058515	0.0625609	0	
-0.0505523	0.0765641	0	
-0.035144	0.082783	0	
-0.0780131	0.0408664	0	
-0.094758	0.0224665	0	
-0.106231	0.0128032	0	
-0.112185	0.005891	0	
-0.114093	1.25002e-010	0	
-0.112185	-0.005891	0	
-0.106231	-0.0128032	0	
-0.094758	-0.0224665	0	
-0.0780131	-0.0408664	0	
-0.035144	-0.082783	0	
-0.0505523	-0.0765641	0	
-0.058515	-0.0625609	0	
-0.0614826	-0.0434439	0	
-0.0626548	-0.02218	0	
-0.0629316	1.08418e-010	0	
-0.0569968	1.00759e-010	0	
-0.0564423	0.0132313	0	
-0.0544897	0.0251495	0	
-0.05008	0.0341778	0	
-0.0419359	0.0392107	0	
-0.0342976	0.0413187	0	
-0.049217	0.0417257	0	
-0.0695582	0.0290797	0	
-0.0812763	0.0179805	0	
-0.0877533	0.00856816	0	
-0.0897791	1.03413e-010	0	
-0.0877533	-0.00856816	0	
-0.0812763	-0.0179805	0	
-0.0695582	-0.0290797	0	
-0.049217	-0.0417257	0	
-0.0342976	-0.0413187	0	
-0.0419359	-0.0392107	0	
-0.05008	-0.0341778	0	
-0.0544897	-0.0251495	0	
-0.0564423	-0.0132313	0	
-0.0569968	1.00759e-010	0	
-0.0459686	8.36184e-011	0	
-0.0452308	0.00714438	0	
-0.0427906	0.0134501	0	
-0.0382155	0.0184196	0	
-0.0321393	0.0225567	0	
-0.0297015	0.0270595	0	
-0.0361688	0.0284338	0	
-0.0476093	0.0252129	0	
-0.0577105	0.0175404	0	
-0.0635474	0.00886758	0	
-0.0654614	7.88784e-011	0	
-0.0635474	-0.00886758	0	
-0.0577105	-0.0175404	0	
-0.0476093	-0.0252129	0	
-0.0361688	-0.0284338	0	
-0.0297015	-0.0270595	0	
-0.0321393	-0.0225567	0	
-0.0382155	-0.0184196	0	
-0.0427906	-0.0134501	0	
-0.0452308	-0.00714438	0	
-0.0459686	8.36184e-011	0	
-0.0318499	5.94456e-011	0	
-0.0311734	0.00369097	0	
-0.0290932	0.00721216	0	
-0.0257382	0.0106771	0	
-0.0223231	0.0144895	0	
-0.0212499	0.0182144	0	
-0.0244031	0.0204301	0	
-0.0305251	0.0192472	0	
-0.0367104	0.0147266	0	
-0.040912	0.00784506	0	
-0.0423318	5.29489e-011	0	
-0.040912	-0.00784506	0	
-0.0367104	-0.0147266	0	
-0.0305251	-0.0192472	0	
-0.0244031	-0.0204301	0	
-0.0212499	-0.0182144	0	
-0.0223231	-0.0144895	0	
-0.0257382	-0.0106771	0	
-0.0290932	-0.00721215	0	
-0.0311734	-0.00369097	0	
-0.0318499	5.94456e-011	0	
-0.0162082	3.08025e-011	0	
-0.0158179	0.00206763	0	
-0.0146728	0.00435546	0	
-0.0130013	0.00712009	0	
-0.0114522	0.0104021	0	
-0.0110271	0.013695	0	
-0.0123506	0.0157642	0	
-0.0150067	0.0154341	0	
-0.01788	0.0122426	0	
-0.0199508	0.00674611	0	
-0.0206922	2.65417e-011	0	
-0.0199508	-0.00674611	0	
-0.01788	-0.0122426	0	
-0.0150067	-0.0154341	0	
-0.0123506	-0.0157642	0	
-0.0110271	-0.013695	0	
-0.0114522	-0.0104021	0	
-0.0130013	-0.00712009	0	
-0.0146728	-0.00435546	0	
-0.0158179	-0.00206763	0	
-0.0162082	3.08025e-011	0	
-1.36002e-015	2.23405e-014	0	
-2.32135e-011	0.00160513	0	
-4.40643e-011	0.00354222	0	
-6.0376e-011	0.00606885	0	
-7.03917e-011	0.00916914	0	
-7.30691e-011	0.0122622	0	
-6.83275e-011	0.0142787	0	
-5.70483e-011	0.0141219	0	
-4.0751e-011	0.011343	0	
-2.11728e-011	0.00630317	0	
-1.12076e-015	2.2005e-014	0	
2.11705e-011	-0.00630317	0	
4.07487e-011	-0.011343	0	
5.70459e-011	-0.0141219	0	
6.8325e-011	-0.0142787	0	
7.30665e-011	-0.0122622	0	
7.03891e-011	-0.00916914	0	
6.03733e-011	-0.00606885	0	
4.40616e-011	-0.00354222	0	
2.32108e-011	-0.00160513	0	
-1.36002e-015	2.23405e-014	0	
VECTORS chi2 float
3.12633e-014	8.9265e-016	0	
0.0332397	-1.23145e-011	0	
0.0636926	-2.3601e-011	0	
0.0883988	-3.29916e-011	0	
0.104398	-3.95358e-011	0	
0.109432	-4.26233e-011	0	
0.102841	-4.15292e-011	0	
0.0859128	-3.61666e-011	0	
0.0612487	-2.6714e-011	0	
0.031749	-1.4209e-011	0	
3.2534e-014	9.50384e-016	0	
-0.031749	1.4207e-011	0	
-0.0612487	2.67159e-011	0	
-0.0859128	3.61646e-011	0	
-0.102841	4.15311e-011	0	
-0.109432	4.26213e-011	0	
-0.104398	3.95377e-011	0	
-0.0883988	3.29895e-011	0	
-0.0636926	2.36028e-011	0	
-0.0332397	1.23123e-011	0	
3.12633e-014	8.9265e-016	0	
-1.23447e-011	0.0332397	0	
0.0334697	0.0334697	0	
0.0642976	0.0340073	0	
0.0895401	0.0344856	0	
0.106041	0.0346235	0	
0.111188	0.0345253	0	
0.104186	0.0347199	0	
0.0866068	0.0355509	0	
0.0614395	0.036845	0	
0.0317417	0.0379848	0	
-2.09942e-011	0.0384388	0	
-0.0317417	0.0379848	0	
-0.0614395	0.036845	0	
-0.0866068	0.0355509	0	
-0.104186	0.0347199	0	
-0.111188	0.0345253	0	
-0.106041	0.0346235	0	
-0.0895401	0.0344856	0	
-0.0642976	0.0340073	0	
-0.0334697	0.0334697	0	
-1.23447e-011	0.0332397	0	
-2.35706e-011	0.0636926	0	
0.0340073	0.0642976	0	
0.0658263	0.0658263	0	
0.0927013	0.0674852	0	
0.110869	0.0684194	0	
0.116456	0.0688189	0	
0.107983	0.0698535	0	
0.0882393	0.0725536	0	
0.0616275	0.0760528	0	
0.0315199	0.0789425	0	
-4.10812e-011	0.0800125	0	
-0.0315199	0.0789425	0	
-0.0616275	0.0760528	0	
-0.0882393	0.0725536	0	
-0.107983	0.0698535	0	
-0.116456	0.0688189	0	
-0.110869	0.0684194	0	
-0.0927013	0.0674852	0	
-0.0658263	0.0658263	0	
-0.0340073	0.0642976	0	
-2.35706e-011	0.0636926	0	
-3.30219e-011	0.0883988	0	
0.0344856	0.0895401	0	
0.0674852	0.0927013	0	
0.0968889	0.0968889	0	
0.118572	0.100358	0	
0.12531	0.102321	0	
0.113301	0.106199	0	
0.089267	0.112936	0	
0.060641	0.120834	0	
0.0306977	0.126167	0	
-5.92045e-011	0.128018	0	
-0.0306977	0.126167	0	
-0.060641	0.120834	0	
-0.089267	0.112936	0	
-0.113301	0.106199	0	
-0.12531	0.102321	0	
-0.118572	0.100358	0	
-0.0968889	0.0968889	0	
-0.0674852	0.0927013	0	