# vtk DataFile Version 4.1
vtk output
ASCII
DATASET UNSTRUCTURED_GRID

POINTS	9	float
0	0	0	
1	0	0	
2	0	0	
0	1	0	
1	1	0	
2	1	0	
0	2	0	
1	2	0	
2	2	0	

CELLS 4	20
4	0	1	4	3	
4	1	2	5	4	
4	3	4	7	6	
4	4	5	8	7	

CELL_TYPES	4
9
9
9
9

POINT_DATA	9
VECTORS chi0 float
-1	-1.02673e-012	0	
6.0891e-013	-5.10814e-013	0	
1	-1.04722e-012	0	
-1	3.1989e-013	0	
2.94194e-013	2.73396e-013	0	
1	1.35125e-016	0	
-1	3.04312e-013	0	
-2.7025e-017	3.76532e-013	0	
1	3.04035e-013	0	
VECTORS chi1 float
-1.02618e-012	-1	0	
3.19836e-013	-1	0	
3.04146e-013	-1	0	
-5.10592e-013	6.08603e-013	0	
2.73394e-013	2.94032e-013	0	
3.76421e-013	7.20666e-017	0	
-1.04716e-012	1	0	
4.05375e-017	1	0	
3.04201e-013	1	0	
VECTORS chi2 float
-0.5	-0.5	0	
-0.5	0	0	
-0.5	0.5	0	
-4.50416e-017	-0.5	0	
-4.50416e-017	0	0	
0	0.5	0	
0.5	-0.5	0	
0.5	0	0	
0.5	0.5	0	
