# vtk DataFile Version 4.1
vtk output
ASCII
DATASET UNSTRUCTURED_GRID

POINTS	7401	float
0	0	0	
0	1	0	
0	2	0	
0	3	0	
0	4	0	
0	5	0	
0	6	0	
0	7	0	
0	8	0	
0	9	0	
0	10	0	
0	11	0	
0	12	0	
0	13	0	
0	14	0	
0	15	0	
0	16	0	
0	17	0	
0	18	0	
0	19	0	
0	20	0	
0	21	0	
0	22	0	
0	23	0	
0	24	0	
0	25	0	
0	26	0	
0	27	0	
0	28	0	
0	29	0	
0	30	0	
0	31	0	
0	32	0	
0	33	0	
0	34	0	
0	35	0	
0	36	0	
0	37	0	
0	38	0	
0	39	0	
0	40	0	
1	0	0	
1	1	0	
1	2	0	
1	3	0	
1	4	0	
1	5	0	
1	6	0	
1	7	0	
1	8	0	
1	9	0	
1	10	0	
1	11	0	
1	12	0	
1	13	0	
1	14	0	
1	15	0	
1	16	0	
1	17	0	
1	18	0	
1	19	0	
1	20	0	
1	21	0	
1	22	0	
1	23	0	
1	24	0	
1	25	0	
1	26	0	
1	27	0	
1	28	0	
1	29	0	
1	30	0	
1	31	0	
1	32	0	
1	33	0	
1	34	0	
1	35	0	
1	36	0	
1	37	0	
1	38	0	
1	39	0	
1	40	0	
2	0	0	
2	1	0	
2	2	0	
2	3	0	
2	4	0	
2	5	0	
2	6	0	
2	7	0	
2	8	0	
2	9	0	
2	10	0	
2	11	0	
2	12	0	
2	13	0	
2	14	0	
2	15	0	
2	16	0	
2	17	0	
2	18	0	
2	19	0	
2	20	0	
2	21	0	
2	22	0	
2	23	0	
2	24	0	
2	25	0	
2	26	0	
2	27	0	
2	28	0	
2	29	0	
2	30	0	
2	31	0	
2	32	0	
2	33	0	
2	34	0	
2	35	0	
2	36	0	
2	37	0	
2	38	0	
2	39	0	
2	40	0	
3	0	0	
3	1	0	
3	2	0	
3	3	0	
3	4	0	
3	5	0	
3	6	0	
3	7	0	
3	8	0	
3	9	0	
3	10	0	
3	11	0	
3	12	0	
3	13	0	
3	14	0	
3	15	0	
3	16	0	
3	17	0	
3	18	0	
3	19	0	
3	20	0	
3	21	0	
3	22	0	
3	23	0	
3	24	0	
3	25	0	
3	26	0	
3	27	0	
3	28	0	
3	29	0	
3	30	0	
3	31	0	
3	32	0	
3	33	0	
3	34	0	
3	35	0	
3	36	0	
3	37	0	
3	38	0	
3	39	0	
3	40	0	
4	0	0	
4	1	0	
4	2	0	
4	3	0	
4	4	0	
4	5	0	
4	6	0	
4	7	0	
4	8	0	
4	9	0	
4	10	0	
4	11	0	
4	12	0	
4	13	0	
4	14	0	
4	15	0	
4	16	0	
4	17	0	
4	18	0	
4	19	0	
4	20	0	
4	21	0	
4	22	0	
4	23	0	
4	24	0	
4	25	0	
4	26	0	
4	27	0	
4	28	0	
4	29	0	
4	30	0	
4	31	0	
4	32	0	
4	33	0	
4	34	0	
4	35	0	
4	36	0	
4	37	0	
4	38	0	
4	39	0	
4	40	0	
5	0	0	
5	1	0	
5	2	0	
5	3	0	
5	4	0	
5	5	0	
5	6	0	
5	7	0	
5	8	0	
5	9	0	
5	10	0	
5	11	0	
5	12	0	
5	13	0	
5	14	0	
5	15	0	
5	16	0	
5	17	0	
5	18	0	
5	19	0	
5	20	0	
5	21	0	
5	22	0	
5	23	0	
5	24	0	
5	25	0	
5	26	0	
5	27	0	
5	28	0	
5	29	0	
5	30	0	
5	31	0	
5	32	0	
5	33	0	
5	34	0	
5	35	0	
5	36	0	
5	37	0	
5	38	0	
5	39	0	
5	40	0	
6	0	0	
6	1	0	
6	2	0	
6	3	0	
6	4	0	
6	5	0	
6	6	0	
6	7	0	
6	8	0	
6	9	0	
6	10	0	
6	11	0	
6	12	0	
6	13	0	
6	14	0	
6	15	0	
6	16	0	
6	17	0	
6	18	0	
6	19	0	
6	20	0	
6	21	0	
6	22	0	
6	23	0	
6	24	0	
6	25	0	
6	26	0	
6	27	0	
6	28	0	
6	29	0	
6	30	0	
6	31	0	
6	32	0	
6	33	0	
6	34	0	
6	35	0	
6	36	0	
6	37	0	
6	38	0	
6	39	0	
6	40	0	
7	0	0	
7	1	0	
7	2	0	
7	3	0	
7	4	0	
7	5	0	
7	6	0	
7	7	0	
7	8	0	
7	9	0	
7	10	0	
7	11	0	
7	12	0	
7	13	0	
7	14	0	
7	15	0	
7	16	0	
7	17	0	
7	18	0	
7	19	0	
7	20	0	
7	21	0	
7	22	0	
7	23	0	
7	24	0	
7	25	0	
7	26	0	
7	27	0	
7	28	0	
7	29	0	
7	30	0	
7	31	0	
7	32	0	
7	33	0	
7	34	0	
7	35	0	
7	36	0	
7	37	0	
7	38	0	
7	39	0	
7	40	0	
8	0	0	
8	1	0	
8	2	0	
8	3	0	
8	4	0	
8	5	0	
8	6	0	
8	7	0	
8	8	0	
8	9	0	
8	10	0	
8	11	0	
8	12	0	
8	13	0	
8	14	0	
8	15	0	
8	16	0	
8	17	0	
8	18	0	
8	19	0	
8	20	0	
8	21	0	
8	22	0	
8	23	0	
8	24	0	
8	25	0	
8	26	0	
8	27	0	
8	28	0	
8	29	0	
8	30	0	
8	31	0	
8	32	0	
8	33	0	
8	34	0	
8	35	0	
8	36	0	
8	37	0	
8	38	0	
8	39	0	
8	40	0	
9	0	0	
9	1	0	
9	2	0	
9	3	0	
9	4	0	
9	5	0	
9	6	0	
9	7	0	
9	8	0	
9	9	0	
9	10	0	
9	11	0	
9	12	0	
9	13	0	
9	14	0	
9	15	0	
9	16	0	
9	17	0	
9	18	0	
9	19	0	
9	20	0	
9	21	0	
9	22	0	
9	23	0	
9	24	0	
9	25	0	
9	26	0	
9	27	0	
9	28	0	
9	29	0	
9	30	0	
9	31	0	
9	32	0	
9	33	0	
9	34	0	
9	35	0	
9	36	0	
9	37	0	
9	38	0	
9	39	0	
9	40	0	
10	0	0	
10	1	0	
10	2	0	
10	3	0	
10	4	0	
10	5	0	
10	6	0	
10	7	0	
10	8	0	
10	9	0	
10	10	0	
10	11	0	
10	12	0	
10	13	0	
10	14	0	
10	15	0	
10	16	0	
10	17	0	
10	18	0	
10	19	0	
10	20	0	
10	21	0	
10	22	0	
10	23	0	
10	24	0	
10	25	0	
10	26	0	
10	27	0	
10	28	0	
10	29	0	
10	30	0	
10	31	0	
10	32	0	
10	33	0	
10	34	0	
10	35	0	
10	36	0	
10	37	0	
10	38	0	
10	39	0	
10	40	0	
11	0	0	
11	1	0	
11	2	0	
11	3	0	
11	4	0	
11	5	0	
11	6	0	
11	7	0	
11	8	0	
11	9	0	
11	10	0	
11	11	0	
11	12	0	
11	13	0	
11	14	0	
11	15	0	
11	16	0	
11	17	0	
11	18	0	
11	19	0	
11	20	0	
11	21	0	
11	22	0	
11	23	0	
11	24	0	
11	25	0	
11	26	0	
11	27	0	
11	28	0	
11	29	0	
11	30	0	
11	31	0	
11	32	0	
11	33	0	
11	34	0	
11	35	0	
11	36	0	
11	37	0	
11	38	0	
11	39	0	
11	40	0	
12	0	0	
12	1	0	
12	2	0	
12	3	0	
12	4	0	
12	5	0	
12	6	0	
12	7	0	
12	8	0	
12	9	0	
12	10	0	
12	11	0	
12	12	0	
12	13	0	
12	14	0	
12	15	0	
12	16	0	
12	17	0	
12	18	0	
12	19	0	
12	20	0	
12	21	0	
12	22	0	
12	23	0	
12	24	0	
12	25	0	
12	26	0	
12	27	0	
12	28	0	
12	29	0	
12	30	0	
12	31	0	
12	32	0	
12	33	0	
12	34	0	
12	35	0	
12	36	0	
12	37	0	
12	38	0	
12	39	0	
12	40	0	
13	0	0	
13	1	0	
13	2	0	
13	3	0	
13	4	0	
13	5	0	
13	6	0	
13	7	0	
13	8	0	
13	9	0	
13	10	0	
13	11	0	
13	12	0	
13	13	0	
13	14	0	
13	15	0	
13	16	0	
13	17	0	
13	18	0	
13	19	0	
13	20	0	
13	21	0	
13	22	0	
13	23	0	
13	24	0	
13	25	0	
13	26	0	
13	27	0	
13	28	0	
13	29	0	
13	30	0	
13	31	0	
13	32	0	
13	33	0	
13	34	0	
13	35	0	
13	36	0	
13	37	0	
13	38	0	
13	39	0	
13	40	0	
14	0	0	
14	1	0	
14	2	0	
14	3	0	
14	4	0	
14	5	0	
14	6	0	
14	7	0	
14	8	0	
14	9	0	
14	10	0	
14	11	0	
14	12	0	
14	13	0	
14	14	0	
14	15	0	
14	16	0	
14	17	0	
14	18	0	
14	19	0	
14	20	0	
14	21	0	
14	22	0	
14	23	0	
14	24	0	
14	25	0	
14	26	0	
14	27	0	
14	28	0	
14	29	0	
14	30	0	
14	31	0	
14	32	0	
14	33	0	
14	34	0	
14	35	0	
14	36	0	
14	37	0	
14	38	0	
14	39	0	
14	40	0	
15	0	0	
15	1	0	
15	2	0	
15	3	0	
15	4	0	
15	5	0	
15	6	0	
15	7	0	
15	8	0	
15	9	0	
15	10	0	
15	11	0	
15	12	0	
15	13	0	
15	14	0	
15	15	0	
15	16	0	
15	17	0	
15	18	0	
15	19	0	
15	20	0	
15	21	0	
15	22	0	
15	23	0	
15	24	0	
15	25	0	
15	26	0	
15	27	0	
15	28	0	
15	29	0	
15	30	0	
15	31	0	
15	32	0	
15	33	0	
15	34	0	
15	35	0	
15	36	0	
15	37	0	
15	38	0	
15	39	0	
15	40	0	
16	0	0	
16	1	0	
16	2	0	
16	3	0	
16	4	0	
16	5	0	
16	6	0	
16	7	0	
16	8	0	
16	9	0	
16	10	0	
16	11	0	
16	12	0	
16	13	0	
16	14	0	
16	15	0	
16	16	0	
16	17	0	
16	18	0	
16	19	0	
16	20	0	
16	21	0	
16	22	0	
16	23	0	
16	24	0	
16	25	0	
16	26	0	
16	27	0	
16	28	0	
16	29	0	
16	30	0	
16	31	0	
16	32	0	
16	33	0	
16	34	0	
16	35	0	
16	36	0	
16	37	0	
16	38	0	
16	39	0	
16	40	0	
17	0	0	
17	1	0	
17	2	0	
17	3	0	
17	4	0	
17	5	0	
17	6	0	
17	7	0	
17	8	0	
17	9	0	
17	10	0	
17	11	0	
17	12	0	
17	13	0	
17	14	0	
17	15	0	
17	16	0	
17	17	0	
17	18	0	
17	19	0	
17	20	0	
17	21	0	
17	22	0	
17	23	0	
17	24	0	
17	25	0	
17	26	0	
17	27	0	
17	28	0	
17	29	0	
17	30	0	
17	31	0	
17	32	0	
17	33	0	
17	34	0	
17	35	0	
17	36	0	
17	37	0	
17	38	0	
17	39	0	
17	40	0	
18	0	0	
18	1	0	
18	2	0	
18	3	0	
18	4	0	
18	5	0	
18	6	0	
18	7	0	
18	8	0	
18	9	0	
18	10	0	
18	11	0	
18	12	0	
18	13	0	
18	14	0	
18	15	0	
18	16	0	
18	17	0	
18	18	0	
18	19	0	
18	20	0	
18	21	0	
18	22	0	
18	23	0	
18	24	0	
18	25	0	
18	26	0	
18	27	0	
18	28	0	
18	29	0	
18	30	0	
18	31	0	
18	32	0	
18	33	0	
18	34	0	
18	35	0	
18	36	0	
18	37	0	
18	38	0	
18	39	0	
18	40	0	
19	0	0	
19	1	0	
19	2	0	
19	3	0	
19	4	0	
19	5	0	
19	6	0	
19	7	0	
19	8	0	
19	9	0	
19	10	0	
19	11	0	
19	12	0	
19	13	0	
19	14	0	
19	15	0	
19	16	0	
19	17	0	
19	18	0	
19	19	0	
19	20	0	
19	21	0	
19	22	0	
19	23	0	
19	24	0	
19	25	0	
19	26	0	
19	27	0	
19	28	0	
19	29	0	
19	30	0	
19	31	0	
19	32	0	
19	33	0	
19	34	0	
19	35	0	
19	36	0	
19	37	0	
19	38	0	
19	39	0	
19	40	0	
20	0	0	
20	1	0	
20	2	0	
20	3	0	
20	4	0	
20	5	0	
20	6	0	
20	7	0	
20	8	0	
20	9	0	
20	10	0	
20	11	0	
20	12	0	
20	13	0	
20	14	0	
20	15	0	
20	16	0	
20	17	0	
20	18	0	
20	19	0	
20	20	0	
20	21	0	
20	22	0	
20	23	0	
20	24	0	
20	25	0	
20	26	0	
20	27	0	
20	28	0	
20	29	0	
20	30	0	
20	31	0	
20	32	0	
20	33	0	
20	34	0	
20	35	0	
20	36	0	
20	37	0	
20	38	0	
20	39	0	
20	40	0	
21	0	0	
21	1	0	
21	2	0	
21	3	0	
21	4	0	
21	5	0	
21	6	0	
21	7	0	
21	8	0	
21	9	0	
21	10	0	
21	11	0	
21	12	0	
21	13	0	
21	14	0	
21	15	0	
21	16	0	
21	17	0	
21	18	0	
21	19	0	
21	20	0	
21	21	0	
21	22	0	
21	23	0	
21	24	0	
21	25	0	
21	26	0	
21	27	0	
21	28	0	
21	29	0	
21	30	0	
21	31	0	
21	32	0	
21	33	0	
21	34	0	
21	35	0	
21	36	0	
21	37	0	
21	38	0	
21	39	0	
21	40	0	
22	0	0	
22	1	0	
22	2	0	
22	3	0	
22	4	0	
22	5	0	
22	6	0	
22	7	0	
22	8	0	
22	9	0	
22	10	0	
22	11	0	
22	12	0	
22	13	0	
22	14	0	
22	15	0	
22	16	0	
22	17	0	
22	18	0	
22	19	0	
22	20	0	
22	21	0	
22	22	0	
22	23	0	
22	24	0	
22	25	0	
22	26	0	
22	27	0	
22	28	0	
22	29	0	
22	30	0	
22	31	0	
22	32	0	
22	33	0	
22	34	0	
22	35	0	
22	36	0	
22	37	0	
22	38	0	
22	39	0	
22	40	0	
23	0	0	
23	1	0	
23	2	0	
23	3	0	
23	4	0	
23	5	0	
23	6	0	
23	7	0	
23	8	0	
23	9	0	
23	10	0	
23	11	0	
23	12	0	
23	13	0	
23	14	0	
23	15	0	
23	16	0	
23	17	0	
23	18	0	
23	19	0	
23	20	0	
23	21	0	
23	22	0	
23	23	0	
23	24	0	
23	25	0	
23	26	0	
23	27	0	
23	28	0	
23	29	0	
23	30	0	
23	31	0	
23	32	0	
23	33	0	
23	34	0	
23	35	0	
23	36	0	
23	37	0	
23	38	0	
23	39	0	
23	40	0	
24	0	0	
24	1	0	
24	2	0	
24	3	0	
24	4	0	
24	5	0	
24	6	0	
24	7	0	
24	8	0	
24	9	0	
24	10	0	
24	11	0	
24	12	0	
24	13	0	
24	14	0	
24	15	0	
24	16	0	
24	17	0	
24	18	0	
24	19	0	
24	20	0	
24	21	0	
24	22	0	
24	23	0	
24	24	0	
24	25	0	
24	26	0	
24	27	0	
24	28	0	
24	29	0	
24	30	0	
24	31	0	
24	32	0	
24	33	0	
24	34	0	
24	35	0	
24	36	0	
24	37	0	
24	38	0	
24	39	0	
24	40	0	
25	0	0	
25	1	0	
25	2	0	
25	3	0	
25	4	0	
25	5	0	
25	6	0	
25	7	0	
25	8	0	
25	9	0	
25	10	0	
25	11	0	
25	12	0	
25	13	0	
25	14	0	
25	15	0	
25	16	0	
25	17	0	
25	18	0	
25	19	0	
25	20	0	
25	21	0	
25	22	0	
25	23	0	
25	24	0	
25	25	0	
25	26	0	
25	27	0	
25	28	0	
25	29	0	
25	30	0	
25	31	0	
25	32	0	
25	33	0	
25	34	0	
25	35	0	
25	36	0	
25	37	0	
25	38	0	
25	39	0	
25	40	0	
26	0	0	
26	1	0	
26	2	0	
26	3	0	
26	4	0	
26	5	0	
26	6	0	
26	7	0	
26	8	0	
26	9	0	
26	10	0	
26	11	0	
26	12	0	
26	13	0	
26	14	0	
26	15	0	
26	16	0	
26	17	0	
26	18	0	
26	19	0	
26	20	0	
26	21	0	
26	22	0	
26	23	0	
26	24	0	
26	25	0	
26	26	0	
26	27	0	
26	28	0	
26	29	0	
26	30	0	
26	31	0	
26	32	0	
26	33	0	
26	34	0	
26	35	0	
26	36	0	
26	37	0	
26	38	0	
26	39	0	
26	40	0	
27	0	0	
27	1	0	
27	2	0	
27	3	0	
27	4	0	
27	5	0	
27	6	0	
27	7	0	
27	8	0	
27	9	0	
27	10	0	
27	11	0	
27	12	0	
27	13	0	
27	14	0	
27	15	0	
27	16	0	
27	17	0	
27	18	0	
27	19	0	
27	20	0	
27	21	0	
27	22	0	
27	23	0	
27	24	0	
27	25	0	
27	26	0	
27	27	0	
27	28	0	
27	29	0	
27	30	0	
27	31	0	
27	32	0	
27	33	0	
27	34	0	
27	35	0	
27	36	0	
27	37	0	
27	38	0	
27	39	0	
27	40	0	
28	0	0	
28	1	0	
28	2	0	
28	3	0	
28	4	0	
28	5	0	
28	6	0	
28	7	0	
28	8	0	
28	9	0	
28	10	0	
28	11	0	
28	12	0	
28	13	0	
28	14	0	
28	15	0	
28	16	0	
28	17	0	
28	18	0	
28	19	0	
28	20	0	
28	21	0	
28	22	0	
28	23	0	
28	24	0	
28	25	0	
28	26	0	
28	27	0	
28	28	0	
28	29	0	
28	30	0	
[...]
POINT_DATA	7401
VECTORS d float
-1.0539e-016	-5.83574e-017	0	
-3.66436e-017	-1.68301e-017	0	
-2.93366e-017	-9.57864e-018	0	
-2.51374e-017	-8.42104e-018	0	
-1.51348e-018	-2.11e-018	0	
-3.70625e-017	-2.08829e-018	0	
-3.09015e-017	-7.2898e-018	0	
-2.51119e-017	-6.4782e-018	0	
-2.09361e-017	-6.00992e-018	0	
-1.73565e-017	-5.98596e-018	0	
-1.44663e-017	-5.88623e-018	0	
-1.20432e-017	-5.88243e-018	0	
-1.00038e-017	-5.91411e-018	0	
-8.26481e-018	-5.96136e-018	0	
-6.75343e-018	-6.01102e-018	0	
-5.41212e-018	-6.05742e-018	0	
-4.19694e-018	-6.09751e-018	0	
-3.07376e-018	-6.13011e-018	0	
-2.01509e-018	-6.15422e-018	0	
-9.97533e-019	-6.16903e-018	0	
1.56125e-028	-6.17403e-018	0	
9.97533e-019	-6.16903e-018	0	
2.01509e-018	-6.15422e-018	0	
3.07376e-018	-6.13011e-018	0	
4.19694e-018	-6.09751e-018	0	
5.41212e-018	-6.05742e-018	0	
6.75343e-018	-6.01102e-018	0	
8.26481e-018	-5.96136e-018	0	
1.00038e-017	-5.91411e-018	0	
1.20432e-017	-5.88243e-018	0	
1.44663e-017	-5.88623e-018	0	
1.73565e-017	-5.98596e-018	0	
2.09361e-017	-6.00992e-018	0	
2.51119e-017	-6.4782e-018	0	
3.09015e-017	-7.2898e-018	0	
3.70625e-017	-2.08829e-018	0	
1.51348e-018	-2.11e-018	0	
2.51374e-017	-8.42104e-018	0	
2.93366e-017	-9.57864e-018	0	
3.66436e-017	-1.68301e-017	0	
1.0539e-016	-5.83574e-017	0	
-3.23251e-006	-3.08036e-006	0	
-1.85671e-006	-2.30428e-006	0	
-1.4304e-006	-1.87799e-006	0	
-1.22214e-006	-1.55699e-006	0	
-3.52853e-007	-1.18085e-006	0	
-1.61541e-006	-1.40662e-006	0	
-1.38649e-006	-1.34989e-006	0	
-1.15417e-006	-1.26151e-006	0	
-9.5169e-007	-1.16827e-006	0	
-7.892e-007	-1.10612e-006	0	
-6.53004e-007	-1.06524e-006	0	
-5.40964e-007	-1.04074e-006	0	
-4.47501e-007	-1.02724e-006	0	
-3.68622e-007	-1.02043e-006	0	
-3.00587e-007	-1.01737e-006	0	
-2.40516e-007	-1.01644e-006	0	
-1.86278e-007	-1.01667e-006	0	
-1.36288e-007	-1.01742e-006	0	
-8.92809e-008	-1.01826e-006	0	
-4.41765e-008	-1.01889e-006	0	
2.49882e-018	-1.01912e-006	0	
4.41765e-008	-1.01889e-006	0	
8.92809e-008	-1.01826e-006	0	
1.36288e-007	-1.01742e-006	0	
1.86278e-007	-1.01667e-006	0	
2.40516e-007	-1.01644e-006	0	
3.00587e-007	-1.01737e-006	0	
3.68622e-007	-1.02043e-006	0	
4.47501e-007	-1.02724e-006	0	
5.40964e-007	-1.04074e-006	0	
6.53004e-007	-1.06524e-006	0	
7.892e-007	-1.10612e-006	0	
9.5169e-007	-1.16827e-006	0	
1.15417e-006	-1.26151e-006	0	
1.38649e-006	-1.34989e-006	0	
1.61541e-006	-1.40662e-006	0	
3.52853e-007	-1.18085e-006	0	
1.22214e-006	-1.55699e-006	0	
1.4304e-006	-1.87799e-006	0	
1.85671e-006	-2.30428e-006	0	
3.23251e-006	-3.08036e-006	0	
-5.15981e-006	-5.24105e-006	0	
-3.65047e-006	-4.52591e-006	0	
-2.91775e-006	-4.02137e-006	0	
-2.55531e-006	-3.8292e-006	0	
-2.47137e-006	-4.00051e-006	0	
-3.85082e-006	-4.55065e-006	0	
-2.97541e-006	-3.41872e-006	0	
-2.40952e-006	-2.98229e-006	0	
-1.97871e-006	-2.72557e-006	0	
-1.62687e-006	-2.52442e-006	0	
-1.33878e-006	-2.39413e-006	0	
-1.10186e-006	-2.30733e-006	0	
-9.07662e-007	-2.25041e-006	0	
-7.45301e-007	-2.21277e-006	0	
-6.06261e-007	-2.1879e-006	0	
-4.84106e-007	-2.17165e-006	0	
-3.74291e-007	-2.16137e-006	0	
-2.73466e-007	-2.15514e-006	0	
-1.78965e-007	-2.1516e-006	0	
-8.84993e-008	-2.14982e-006	0	
4.48822e-018	-2.14929e-006	0	
8.84993e-008	-2.14982e-006	0	
1.78965e-007	-2.1516e-006	0	
2.73466e-007	-2.15514e-006	0	
3.74291e-007	-2.16137e-006	0	
4.84106e-007	-2.17165e-006	0	
6.06261e-007	-2.1879e-006	0	
7.45301e-007	-2.21277e-006	0	
9.07662e-007	-2.25041e-006	0	
1.10186e-006	-2.30733e-006	0	
1.33878e-006	-2.39413e-006	0	
1.62687e-006	-2.52442e-006	0	
1.97871e-006	-2.72557e-006	0	
2.40952e-006	-2.98229e-006	0	
2.97541e-006	-3.41872e-006	0	
3.85082e-006	-4.55065e-006	0	
2.47137e-006	-4.00051e-006	0	
2.55531e-006	-3.8292e-006	0	
2.91775e-006	-4.02137e-006	0	
3.65047e-006	-4.52591e-006	0	
5.15981e-006	-5.24105e-006	0	
-6.69782e-006	-7.05616e-006	0	
-5.28131e-006	-6.43043e-006	0	
-4.33932e-006	-5.9187e-006	0	
-3.80309e-006	-5.56895e-006	0	
-3.85341e-006	-5.35454e-006	0	
-4.35916e-006	-5.59988e-006	0	
-4.85065e-006	-5.99831e-006	0	
-3.85868e-006	-5.06638e-006	0	
-3.10765e-006	-4.52614e-006	0	
-2.53763e-006	-4.18854e-006	0	
-2.07125e-006	-3.93401e-006	0	
-1.69624e-006	-3.7633e-006	0	
-1.3915e-006	-3.64341e-006	0	
-1.13964e-006	-3.5583e-006	0	
-9.24812e-007	-3.49783e-006	0	
-7.36781e-007	-3.45556e-006	0	
-5.68486e-007	-3.42666e-006	0	
-4.14673e-007	-3.40754e-006	0	
-2.71063e-007	-3.39556e-006	0	
-1.33952e-007	-3.38901e-006	0	
5.49655e-018	-3.38693e-006	0	
1.33952e-007	-3.38901e-006	0	
2.71063e-007	-3.39556e-006	0	
4.14673e-007	-3.40754e-006	0	
5.68486e-007	-3.42666e-006	0	
7.36781e-007	-3.45556e-006	0	
9.24812e-007	-3.49783e-006	0	
1.13964e-006	-3.5583e-006	0	
1.3915e-006	-3.64341e-006	0	
1.69624e-006	-3.7633e-006	0	
2.07125e-006	-3.93401e-006	0	
2.53763e-006	-4.18854e-006	0	
3.10765e-006	-4.52614e-006	0	
3.85868e-006	-5.06638e-006	0	
4.85065e-006	-5.99831e-006	0	
4.35916e-006	-5.59988e-006	0	
3.85341e-006	-5.35454e-006	0	
3.80309e-006	-5.56895e-006	0	
4.33932e-006	-5.9187e-006	0	
5.28131e-006	-6.43043e-006	0	
6.69782e-006	-7.05616e-006	0	
-8.06115e-006	-8.60336e-006	0	
-6.72374e-006	-8.0317e-006	0	
-5.69831e-006	-7.51043e-006	0	
-5.04436e-006	-7.10386e-006	0	
-4.84229e-006	-6.82845e-006	0	
-5.00693e-006	-6.78293e-006	0	
-5.22139e-006	-7.05217e-006	0	
-5.38906e-006	-7.37606e-006	0	
-4.35928e-006	-6.51649e-006	0	
-3.51395e-006	-5.97873e-006	0	
-2.85219e-006	-5.62754e-006	0	
-2.32403e-006	-5.36099e-006	0	
-1.90354e-006	-5.17088e-006	0	
-1.5561e-006	-5.02963e-006	0	
-1.2602e-006	-4.92629e-006	0	
-1.00163e-006	-4.85224e-006	0	
-7.71209e-007	-4.80031e-006	0	
-5.61639e-007	-4.76488e-006	0	
-3.66731e-007	-4.74202e-006	0	
-1.81116e-007	-4.72921e-006	0	
5.27247e-018	-4.72509e-006	0	
1.81116e-007	-4.72921e-006	0	
3.66731e-007	-4.74202e-006	0	
5.61639e-007	-4.76488e-006	0	
7.71209e-007	-4.80031e-006	0	
1.00163e-006	-4.85224e-006	0	
1.2602e-006	-4.92629e-006	0	
1.5561e-006	-5.02963e-006	0	
1.90354e-006	-5.17088e-006	0	
2.32403e-006	-5.36099e-006	0	
2.85219e-006	-5.62754e-006	0	
3.51395e-006	-5.97873e-006	0	
4.35928e-006	-6.51649e-006	0	
5.38906e-006	-7.37606e-006	0	
5.22139e-006	-7.05217e-006	0	
5.00693e-006	-6.78293e-006	0	
4.84229e-006	-6.82845e-006	0	
5.04436e-006	-7.10386e-006	0	
5.69831e-006	-7.51043e-006	0	
6.72374e-006	-8.0317e-006	0	
8.06115e-006	-8.60336e-006	0	
-9.34356e-006	-9.99691e-006	0	
-8.05358e-006	-9.45229e-006	0	
-6.967e-006	-8.9488e-006	0	
-6.18429e-006	-8.54281e-006	0	
-5.75347e-006	-8.27418e-006	0	
-5.64514e-006	-8.15659e-006	0	
-5.69253e-006	-8.19585e-006	0	
-5.69418e-006	-8.43012e-006	0	
-5.66773e-006	-8.69365e-006	0	
-4.56646e-006	-7.88027e-006	0	
-3.65884e-006	-7.38315e-006	0	
-2.97734e-006	-7.05544e-006	0	
-2.43992e-006	-6.79057e-006	0	
-1.99414e-006	-6.5935e-006	0	
-1.61159e-006	-6.44759e-006	0	
-1.27802e-006	-6.34218e-006	0	
-9.82201e-007	-6.26703e-006	0	
-7.14403e-007	-6.21466e-006	0	
-4.66129e-007	-6.18016e-006	0	
-2.30115e-007	-6.16053e-006	0	
3.86581e-018	-6.15416e-006	0	
2.30115e-007	-6.16053e-006	0	
4.66129e-007	-6.18016e-006	0	
7.14403e-007	-6.21466e-006	0	
9.82201e-007	-6.26703e-006	0	
1.27802e-006	-6.34218e-006	0	
1.61159e-006	-6.44759e-006	0	
1.99414e-006	-6.5935e-006	0	
2.43992e-006	-6.79057e-006	0	
2.97734e-006	-7.05544e-006	0	
3.65884e-006	-7.38315e-006	0	
4.56646e-006	-7.88027e-006	0	
5.66773e-006	-8.69365e-006	0	
5.69418e-006	-8.43012e-006	0	
5.69253e-006	-8.19585e-006	0	
5.64514e-006	-8.15659e-006	0	
5.75347e-006	-8.27418e-006	0	
6.18429e-006	-8.54281e-006	0	
6.967e-006	-8.9488e-006	0	
8.05358e-006	-9.45229e-006	0	
9.34356e-006	-9.99691e-006	0	
-1.06054e-005	-1.13192e-005	0	
-9.30526e-006	-1.07882e-005	0	
-8.13148e-006	-1.03105e-005	0	
-7.2018e-006	-9.93251e-006	0	
-6.59115e-006	-9.68404e-006	0	
-6.287e-006	-9.55395e-006	0	
-6.16955e-006	-9.50419e-006	0	
-6.08522e-006	-9.53588e-006	0	
-5.91095e-006	-9.7075e-006	0	
-5.67356e-006	-9.90294e-006	0	
-4.4836e-006	-9.19084e-006	0	
-3.6386e-006	-8.76686e-006	0	
-2.99379e-006	-8.45914e-006	0	
-2.44628e-006	-8.21267e-006	0	
-1.97227e-006	-8.03535e-006	0	
-1.56122e-006	-7.90545e-006	0	
-1.19866e-006	-7.81076e-006	0	
-8.71458e-007	-7.74316e-006	0	
-5.68518e-007	-7.69769e-006	0	
-2.8065e-007	-7.67147e-006	0	
1.69767e-018	-7.66289e-006	0	
2.8065e-007	-7.67147e-006	0	
5.68518e-007	-7.69769e-006	0	
8.71458e-007	-7.74316e-006	0	
1.19866e-006	-7.81076e-006	0	
1.56122e-006	-7.90545e-006	0	
1.97227e-006	-8.03535e-006	0	
2.44628e-006	-8.21267e-006	0	
2.99379e-006	-8.45914e-006	0	
3.6386e-006	-8.76686e-006	0	
4.4836e-006	-9.19084e-006	0	
5.67356e-006	-9.90294e-006	0	
5.91095e-006	-9.7075e-006	0	
6.08522e-006	-9.53588e-006	0	
6.16955e-006	-9.50419e-006	0	
6.287e-006	-9.55395e-006	0	
6.59115e-006	-9.68404e-006	0	
7.2018e-006	-9.93251e-006	0	
8.13148e-006	-1.03105e-005	0	
9.30526e-006	-1.07882e-005	0	
1.06054e-005	-1.13192e-005	0	
-1.18782e-005	-1.26502e-005	0	
-1.05079e-005	-1.21211e-005	0	
-9.20911e-006	-1.16535e-005	0	
-8.10223e-006	-1.12969e-005	0	
-7.32044e-006	-1.10884e-005	0	
-6.9116e-006	-1.0971e-005	0	
-6.70558e-006	-1.08655e-005	0	
-6.50365e-006	-1.08064e-005	0	
-6.24433e-006	-1.08044e-005	0	
-5.84726e-006	-1.08894e-005	0	
-5.22975e-006	-1.09737e-005	0	
-4.29999e-006	-1.04642e-005	0	
-3.55121e-006	-1.0109e-005	0	
-2.89346e-006	-9.85825e-006	0	
-2.32991e-006	-9.66835e-006	0	
-1.84331e-006	-9.52555e-006	0	
-1.41614e-006	-9.41676e-006	0	
-1.03034e-006	-9.33666e-006	0	
-6.72559e-007	-9.28178e-006	0	
-3.32129e-007	-9.24974e-006	0	
-7.19291e-019	-9.23921e-006	0	
3.32129e-007	-9.24974e-006	0	
6.72559e-007	-9.28178e-006	0	
1.03034e-006	-9.33666e-006	0	
1.41614e-006	-9.41676e-006	0	
1.84331e-006	-9.52555e-006	0	
2.32991e-006	-9.66835e-006	0	
2.89346e-006	-9.85825e-006	0	
3.55121e-006	-1.0109e-005	0	
4.29999e-006	-1.04642e-005	0	
5.22975e-006	-1.09737e-005	0	
5.84726e-006	-1.08894e-005	0	
6.24433e-006	-1.08044e-005	0	
6.50365e-006	-1.08064e-005	0	
6.70558e-006	-1.08655e-005	0	
6.9116e-006	-1.0971e-005	0	
7.32044e-006	-1.10884e-005	0	
8.10223e-006	-1.12969e-005	0	
9.20911e-006	-1.16535e-005	0	
1.05079e-005	-1.21211e-005	0	
1.18782e-005	-1.26502e-005	0	
-1.31809e-005	-1.4067e-005	0	
-1.16864e-005	-1.3532e-005	0	
-1.02361e-005	-1.30519e-005	0	
-8.9178e-006	-1.26664e-005	0	
-7.85053e-006	-1.24452e-005	0	
-7.5033e-006	-1.2386e-005	0	
-7.2939e-006	-1.22471e-005	0	
-6.97725e-006	-1.21646e-005	0	
-6.62036e-006	-1.21377e-005	0	
-6.1265e-006	-1.2102e-005	0	
-5.22941e-006	-1.20561e-005	0	
-4.87341e-006	-1.19622e-005	0	
-4.06557e-006	-1.17398e-005	0	
-3.31028e-006	-1.15267e-005	0	
-2.66836e-006	-1.13406e-005	0	
-2.11742e-006	-1.11909e-005	0	
-1.63042e-006	-1.1072e-005	0	
-1.18845e-006	-1.09821e-005	0	
-7.76641e-007	-1.09197e-005	0	
-3.8377e-007	-1.08831e-005	0	
-2.74642e-018	-1.0871e-005	0	
3.8377e-007	-1.08831e-005	0	
7.76641e-007	-1.09197e-005	0	
1.18845e-006	-1.09821e-005	0	
1.63042e-006	-1.1072e-005	0	
2.11742e-006	-1.11909e-005	0	
2.66836e-006	-1.13406e-005	0	
3.31028e-006	-1.15267e-005	0	
4.06557e-006	-1.17398e-005	0	
4.87341e-006	-1.19622e-005	0	
5.22941e-006	-1.20561e-005	0	
6.1265e-006	-1.2102e-005	0	
6.62036e-006	-1.21377e-005	0	
6.97725e-006	-1.21646e-005	0	
7.2939e-006	-1.22471e-005	0	
7.5033e-006	-1.2386e-005	0	
7.85053e-006	-1.24452e-005	0	
8.9178e-006	-1.26664e-005	0	
1.02361e-005	-1.30519e-005	0	
1.16864e-005	-1.3532e-005	0	
1.31809e-005	-1.4067e-005	0	
-1.45074e-005	-1.56419e-005	0	
-1.28532e-005	-1.51054e-005	0	
-1.12512e-005	-1.46188e-005	0	
-9.71642e-006	-1.41706e-005	0	
-8.19021e-006	-1.37477e-005	0	
-8.22411e-006	-1.35837e-005	0	
-7.86817e-006	-1.36474e-005	0	
-7.46705e-006	-1.36142e-005	0	
-7.01883e-006	-1.35968e-005	0	
-6.47411e-006	-1.36458e-005	0	
-5.79985e-006	-1.37856e-005	0	
-5.46699e-006	-1.40049e-005	0	
-4.54683e-006	-1.34815e-005	0	
-3.69403e-006	-1.32295e-005	0	
-2.9824e-006	-1.30552e-005	0	
-2.37956e-006	-1.28916e-005	0	
-1.83919e-006	-1.27631e-005	0	
-1.34317e-006	-1.26665e-005	0	
-8.78937e-007	-1.25995e-005	0	
-4.34663e-007	-1.256e-005	0	
-3.83927e-018	-1.2547e-005	0	
4.34663e-007	-1.256e-005	0	
8.78937e-007	-1.25995e-005	0	
1.34317e-006	-1.26665e-005	0	
1.83919e-006	-1.27631e-005	0	
2.37956e-006	-1.28916e-005	0	
2.9824e-006	-1.30552e-005	0	
3.69403e-006	-1.32295e-005	0	
4.54683e-006	-1.34815e-005	0	
5.46699e-006	-1.40049e-005	0	
5.79985e-006	-1.37856e-005	0	
6.47411e-006	-1.36458e-005	0	
7.01883e-006	-1.35968e-005	0	
7.46705e-006	-1.36142e-005	0	
7.86817e-006	-1.36474e-005	0	
8.22411e-006	-1.35837e-005	0	
8.19021e-006	-1.37477e-005	0	
9.71642e-006	-1.41706e-005	0	
1.12512e-005	-1.46188e-005	0	
1.28532e-005	-1.51054e-005	0	
1.45074e-005	-1.56419e-005	0	
-1.58246e-005	-1.74159e-005	0	
-1.3999e-005	-1.68936e-005	0	
-1.22459e-005	-1.64233e-005	0	
-1.05134e-005	-1.60217e-005	0	
-8.67092e-006	-1.57152e-005	0	
-9.18759e-006	-1.53895e-005	0	
-8.44405e-006	-1.52617e-005	0	
-7.97815e-006	-1.51236e-005	0	
-7.43696e-006	-1.50999e-005	0	
-6.83678e-006	-1.511e-005	0	
-6.24868e-006	-1.51251e-005	0	
-5.67019e-006	-1.52531e-005	0	
-5.04396e-006	-1.54119e-005	0	
-4.05052e-006	-1.49913e-005	0	
-3.28341e-006	-1.47731e-005	0	
-2.63173e-006	-1.46096e-005	0	
-2.03896e-006	-1.44742e-005	0	
-1.49094e-006	-1.43783e-005	0	
-9.77161e-007	-1.43108e-005	0	
-4.83795e-007	-1.42705e-005	0	
-3.79712e-018	-1.42571e-005	0	
4.83795e-007	-1.42705e-005	0	
9.77161e-007	-1.43108e-005	0	
1.49094e-006	-1.43783e-005	0	
2.03896e-006	-1.44742e-005	0	
2.63173e-006	-1.46096e-005	0	
3.28341e-006	-1.47731e-005	0	
4.05052e-006	-1.49913e-005	0	
5.04396e-006	-1.54119e-005	0	
5.67019e-006	-1.52531e-005	0	
6.24868e-006	-1.51251e-005	0	
6.83678e-006	-1.511e-005	0	
7.43696e-006	-1.50999e-005	0	
7.97815e-006	-1.51236e-005	0	
8.44405e-006	-1.52617e-005	0	
9.18759e-006	-1.53895e-005	0	
8.67092e-006	-1.57152e-005	0	
1.05134e-005	-1.60217e-005	0	
1.22459e-005	-1.64233e-005	0	
1.3999e-005	-1.68936e-005	0	
1.58246e-005	-1.74159e-005	0	
-1.70946e-005	-1.93834e-005	0	
-1.51102e-005	-1.88836e-005	0	
-1.32089e-005	-1.84389e-005	0	
-1.13078e-005	-1.80549e-005	0	
-9.30501e-006	-1.77389e-005	0	
-9.23104e-006	-1.64228e-005	0	
-9.10844e-006	-1.66071e-005	0	
-8.50142e-006	-1.66649e-005	0	
-7.89098e-006	-1.66362e-005	0	
-7.25254e-006	-1.66046e-005	0	
-6.60569e-006	-1.65829e-005	0	
-5.9459e-006	-1.65862e-005	0	
-5.18652e-006	-1.66598e-005	0	
-4.24299e-006	-1.67309e-005	0	
-3.57527e-006	-1.64679e-005	0	
-2.86551e-006	-1.6304e-005	0	
-2.21854e-006	-1.61958e-005	0	
-1.62736e-006	-1.61091e-005	0	
-1.06912e-006	-1.60458e-005	0	
-5.30247e-007	-1.60066e-005	0	
-2.66231e-018	-1.59934e-005	0	
5.30247e-007	-1.60066e-005	0	
1.06912e-006	-1.60458e-005	0	
1.62736e-006	-1.61091e-005	0	
2.21854e-006	-1.61958e-005	0	
2.86551e-006	-1.6304e-005	0	
3.57527e-006	-1.64679e-005	0	
4.24299e-006	-1.67309e-005	0	
5.18652e-006	-1.66598e-005	0	
5.9459e-006	-1.65862e-005	0	
6.60569e-006	-1.65829e-005	0	
7.25254e-006	-1.66046e-005	0	
7.89098e-006	-1.66362e-005	0	
8.50142e-006	-1.66649e-005	0	
9.10844e-006	-1.66071e-005	0	
9.23104e-006	-1.64228e-005	0	
9.30501e-006	-1.77389e-005	0	
1.13078e-005	-1.80549e-005	0	
1.32089e-005	-1.84389e-005	0	
1.51102e-005	-1.88836e-005	0	
1.70946e-005	-1.93834e-005	0	
-1.82957e-005	-2.15069e-005	0	
-1.61836e-005	-2.10314e-005	0	
-1.41583e-005	-2.06016e-005	0	
-1.21298e-005	-2.02175e-005	0	
-1.00097e-005	-1.9879e-005	0	
-9.73325e-006	-1.91185e-005	0	
-9.95236e-006	-1.8491e-005	0	
-9.04209e-006	-1.83707e-005	0	
-8.39025e-006	-1.82275e-005	0	
-7.69459e-006	-1.81706e-005	0	
-6.98443e-006	-1.81391e-005	0	
-6.25415e-006	-1.81253e-005	0	
-5.4165e-006	-1.80994e-005	0	
-4.24367e-006	-1.80612e-005	0	
-3.80566e-006	-1.80475e-005	0	
-3.04974e-006	-1.79961e-005	0	
-2.36539e-006	-1.79377e-005	0	
-1.74894e-006	-1.786e-005	0	
-1.15449e-006	-1.77992e-005	0	
-5.73262e-007	-1.77628e-005	0	
-7.44305e-019	-1.77507e-005	0	
5.73262e-007	-1.77628e-005	0	
1.15449e-006	-1.77992e-005	0	
1.74894e-006	-1.786e-005	0	
2.36539e-006	-1.79377e-005	0	
3.04974e-006	-1.79961e-005	0	
3.80566e-006	-1.80475e-005	0	
4.24367e-006	-1.80612e-005	0	
5.4165e-006	-1.80994e-005	0	
6.25415e-006	-1.81253e-005	0	
6.98443e-006	-1.81391e-005	0	
7.69459e-006	-1.81706e-005	0	
8.39025e-006	-1.82275e-005	0	
9.04209e-006	-1.83707e-005	0	
9.95236e-006	-1.8491e-005	0	
9.73325e-006	-1.91185e-005	0	
1.00097e-005	-1.9879e-005	0	
1.21298e-005	-2.02175e-005	0	
1.41583e-005	-2.06016e-005	0	
1.61836e-005	-2.10314e-005	0	
1.82957e-005	-2.15069e-005	0	
-1.94221e-005	-2.37426e-005	0	
-1.72195e-005	-2.32913e-005	0	
-1.51056e-005	-2.28704e-005	0	
-1.29898e-005	-2.24793e-005	0	
-1.07843e-005	-2.21175e-005	0	
-1.04247e-005	-2.10657e-005	0	
-9.98961e-006	-1.96509e-005	0	
-9.66126e-006	-1.9815e-005	0	
-8.89568e-006	-1.98568e-005	0	
-8.14257e-006	-1.9815e-005	0	
-7.37751e-006	-1.97782e-005	0	
-6.57758e-006	-1.97742e-005	0	
-5.70567e-006	-1.98139e-005	0	
-4.72367e-006	-1.99255e-005	0	
-4.03499e-006	-2.01042e-005	0	
-3.18008e-006	-1.97883e-005	0	
-2.50257e-006	-1.9699e-005	0	
-1.86406e-006	-1.96256e-005	0	
-1.23304e-006	-1.95653e-005	0	
-6.11228e-007	-1.95364e-005	0	
1.38855e-018	-1.95273e-005	0	
6.11228e-007	-1.95364e-005	0	
1.23304e-006	-1.95653e-005	0	
1.86406e-006	-1.96256e-005	0	
2.50257e-006	-1.9699e-005	0	
3.18008e-006	-1.97883e-005	0	
4.03499e-006	-2.01042e-005	0	
4.72367e-006	-1.99255e-005	0	
5.70567e-006	-1.98139e-005	0	
6.57758e-006	-1.97742e-005	0	
7.37751e-006	-1.97782e-005	0	
8.14257e-006	-1.9815e-005	0	
8.89568e-006	-1.98568e-005	0	
9.66126e-006	-1.9815e-005	0	
9.98961e-006	-1.96509e-005	0	
1.04247e-005	-2.10657e-005	0	
1.07843e-005	-2.21175e-005	0	
1.29898e-005	-2.24793e-005	0	
1.51056e-005	-2.28704e-005	0	
1.72195e-005	-2.32913e-005	0	
1.94221e-005	-2.37426e-005	0	
-2.04736e-005	-2.60497e-005	0	
-1.82188e-005	-2.56222e-005	0	
-1.60533e-005	-2.52088e-005	0	
-1.38866e-005	-2.48095e-005	0	
-1.16308e-005	-2.44243e-005	0	
-1.11899e-005	-2.33888e-005	0	
-1.06042e-005	-2.2482e-005	0	
-1.04443e-005	-2.17538e-005	0	
-9.40337e-006	-2.16412e-005	0	
-8.60864e-006	-2.15102e-005	0	
-7.77671e-006	-2.14669e-005	0	
-6.91734e-006	-2.1461e-005	0	
-6.01294e-006	-2.14665e-005	0	
-5.11065e-006	-2.14601e-005	0	
-4.19616e-006	-2.15246e-005	0	
-3.13416e-006	-2.16016e-005	0	
-2.65399e-006	-2.1449e-005	0	
-1.97281e-006	-2.13742e-005	0	
-1.29674e-006	-2.13443e-005	0	
-6.40864e-007	-2.13296e-005	0	
3.15389e-018	-2.13267e-005	0	
6.40864e-007	-2.13296e-005	0	
1.29674e-006	-2.13443e-005	0	
1.97281e-006	-2.13742e-005	0	
2.65399e-006	-2.1449e-005	0	
3.13416e-006	-2.16016e-005	0	
4.19616e-006	-2.15246e-005	0	
5.11065e-006	-2.14601e-005	0	
6.01294e-006	-2.14665e-005	0	
6.91734e-006	-2.1461e-005	0	
7.77671e-006	-2.14669e-005	0	
8.60864e-006	-2.15102e-005	0	
9.40337e-006	-2.16412e-005	0	
1.04443e-005	-2.17538e-005	0	
1.06042e-005	-2.2482e-005	0	
1.11899e-005	-2.33888e-005	0	
1.16308e-005	-2.44243e-005	0	
1.38866e-005	-2.48095e-005	0	
1.60533e-005	-2.52088e-005	0	
1.82188e-005	-2.56222e-005	0	
2.04736e-005	-2.60497e-005	0	
-2.14504e-005	-2.83899e-005	0	
-1.91816e-005	-2.79861e-005	0	
-1.70019e-005	-2.75801e-005	0	
-1.48204e-005	-2.71724e-005	0	
-1.25496e-005	-2.67637e-005	0	
-1.20337e-005	-2.56289e-005	0	
-1.13695e-005	-2.44932e-005	0	
-1.04798e-005	-2.30286e-005	0	
-9.97451e-006	-2.31818e-005	0	
-9.07242e-006	-2.32252e-005	0	
-8.1858e-006	-2.31953e-005	0	
-7.28614e-006	-2.31677e-005	0	
-6.36181e-006	-2.31557e-005	0	
-5.43271e-006	-2.31441e-005	0	
-4.44172e-006	-2.31117e-005	0	
-3.13637e-006	-2.30707e-005	0	
-2.7764e-006	-2.3119e-005	0	
-2.05855e-006	-2.31388e-005	0	
-1.333e-006	-2.31547e-005	0	
-6.56755e-007	-2.31541e-005	0	
4.19781e-018	-2.31546e-005	0	
6.56755e-007	-2.31541e-005	0	
1.333e-006	-2.31547e-005	0	
2.05855e-006	-2.31388e-005	0	
2.7764e-006	-2.3119e-005	0	
3.13637e-006	-2.30707e-005	0	
4.44172e-006	-2.31117e-005	0	
5.43271e-006	-2.31441e-005	0	
6.36181e-006	-2.31557e-005	0	
7.28614e-006	-2.31677e-005	0	
8.1858e-006	-2.31953e-005	0	
9.07242e-006	-2.32252e-005	0	
9.97451e-006	-2.31818e-005	0	
1.04798e-005	-2.30286e-005	0	
1.13695e-005	-2.44932e-005	0	
1.20337e-005	-2.56289e-005	0	
1.25496e-005	-2.67637e-005	0	
1.48204e-005	-2.71724e-005	0	
1.70019e-005	-2.75801e-005	0	
1.91816e-005	-2.79861e-005	0	
2.14504e-005	-2.83899e-005	0	
-2.23523e-005	-3.07252e-005	0	
-2.0108e-005	-3.03454e-005	0	
-1.79513e-005	-2.99476e-005	0	