# vtk DataFile Version 4.1
vtk output
ASCII
DATASET UNSTRUCTURED_GRID

POINTS	149	float
0	0	0	
0	0.5	0	
0	1	0	
0	1.5	0	
0	2	0	
5	0	0	
5	0.5	0	
5	1	0	
5	1.5	0	
5	2	0	
10	0	0	
10	0.5	0	
10	1	0	
10	1.5	0	
10	2	0	
15	0	0	
15	0.5	0	
15	1	0	
15	1.5	0	
15	2	0	
20	0	0	
20	0.5	0	
20	1	0	
20	1.5	0	
20	2	0	
25	0	0	
25	0.5	0	
25	1	0	
25	1.5	0	
25	2	0	
30	0	0	
30	0.5	0	
30	1	0	
30	1.5	0	
30	2	0	
35	0	0	
35	0.5	0	
35	1	0	
35	1.5	0	
35	2	0	
40	0	0	
40	0.5	0	
40	1	0	
40	1.5	0	
40	2	0	
45	0	0	
45	0.5	0	
45	1	0	
45	1.5	0	
45	2	0	
50	0	0	
50	0.5	0	
50	1	0	
50	1.5	0	
50	2	0	
2.5	0	0	
5	0.25	0	
2.5	0.5	0	
0	0.25	0	
5	0.75	0	
2.5	1	0	
0	0.75	0	
5	1.25	0	
2.5	1.5	0	
0	1.25	0	
5	1.75	0	
2.5	2	0	
0	1.75	0	
7.5	0	0	
10	0.25	0	
7.5	0.5	0	
10	0.75	0	
7.5	1	0	
10	1.25	0	
7.5	1.5	0	
10	1.75	0	
7.5	2	0	
12.5	0	0	
15	0.25	0	
12.5	0.5	0	
15	0.75	0	
12.5	1	0	
15	1.25	0	
12.5	1.5	0	
15	1.75	0	
12.5	2	0	
17.5	0	0	
20	0.25	0	
17.5	0.5	0	
20	0.75	0	
17.5	1	0	
20	1.25	0	
17.5	1.5	0	
20	1.75	0	
17.5	2	0	
22.5	0	0	
25	0.25	0	
22.5	0.5	0	
25	0.75	0	
22.5	1	0	
25	1.25	0	
22.5	1.5	0	
25	1.75	0	
22.5	2	0	
27.5	0	0	
30	0.25	0	
27.5	0.5	0	
30	0.75	0	
27.5	1	0	
30	1.25	0	
27.5	1.5	0	
30	1.75	0	
27.5	2	0	
32.5	0	0	
35	0.25	0	
32.5	0.5	0	
35	0.75	0	
32.5	1	0	
35	1.25	0	
32.5	1.5	0	
35	1.75	0	
32.5	2	0	
37.5	0	0	
40	0.25	0	
37.5	0.5	0	
40	0.75	0	
37.5	1	0	
40	1.25	0	
37.5	1.5	0	
40	1.75	0	
37.5	2	0	
42.5	0	0	
45	0.25	0	
42.5	0.5	0	
45	0.75	0	
42.5	1	0	
45	1.25	0	
42.5	1.5	0	
45	1.75	0	
42.5	2	0	
47.5	0	0	
50	0.25	0	
47.5	0.5	0	
50	0.75	0	
47.5	1	0	
50	1.25	0	
47.5	1.5	0	
50	1.75	0	
47.5	2	0	

CELLS 40	360
8	0	5	6	1	55	56	57	58	
8	1	6	7	2	57	59	60	61	
8	2	7	8	3	60	62	63	64	
8	3	8	9	4	63	65	66	67	
8	5	10	11	6	68	69	70	56	
8	6	11	12	7	70	71	72	59	
8	7	12	13	8	72	73	74	62	
8	8	13	14	9	74	75	76	65	
8	10	15	16	11	77	78	79	69	
8	11	16	17	12	79	80	81	71	
8	12	17	18	13	81	82	83	73	
8	13	18	19	14	83	84	85	75	
8	15	20	21	16	86	87	88	78	
8	16	21	22	17	88	89	90	80	
8	17	22	23	18	90	91	92	82	
8	18	23	24	19	92	93	94	84	
8	20	25	26	21	95	96	97	87	
8	21	26	27	22	97	98	99	89	
8	22	27	28	23	99	100	101	91	
8	23	28	29	24	101	102	103	93	
8	25	30	31	26	104	105	106	96	
8	26	31	32	27	106	107	108	98	
8	27	32	33	28	108	109	110	100	
8	28	33	34	29	110	111	112	102	
8	30	35	36	31	113	114	115	105	
8	31	36	37	32	115	116	117	107	
8	32	37	38	33	117	118	119	109	
8	33	38	39	34	119	120	121	111	
8	35	40	41	36	122	123	124	114	
8	36	41	42	37	124	125	126	116	
8	37	42	43	38	126	127	128	118	
8	38	43	44	39	128	129	130	120	
8	40	45	46	41	131	132	133	123	
8	41	46	47	42	133	134	135	125	
8	42	47	48	43	135	136	137	127	
8	43	48	49	44	137	138	139	129	
8	45	50	51	46	140	141	142	132	
8	46	51	52	47	142	143	144	134	
8	47	52	53	48	144	145	146	136	
8	48	53	54	49	146	147	148	138	

CELL_TYPES	40
23
23
23
23
23
23
23
23
23
23
23
23
23
23
23
23
23
23
23
23
23
23
23
23
23
23
23
23
23
23
23
23
23
23
23
23
23
23
23
23

POINT_DATA	149
VECTORS u float
-2.68025e-012	8.44055e-013	0	
-3.38808	0.08442	0	
-6.62234	0.133183	0	
-9.82521	0.150314	0	
-13.0958	0.135894	0	
-1.75142	29.7812	0	
-4.27316	29.8755	0	
-6.74239	29.9156	0	
-9.21276	29.8966	0	
-11.7301	29.8198	0	
-5.12465	47.1637	0	
-6.00201	47.289	0	
-6.86383	47.3353	0	
-7.72629	47.2998	0	
-8.60431	47.185	0	
-9.05857	46.2405	0	
-8.00343	46.3601	0	
-6.97126	46.4037	0	
-5.93914	46.3687	0	
-4.88406	46.2577	0	
-12.1547	27.6413	0	
-9.58274	27.7138	0	
-7.06423	27.7409	0	
-4.54567	27.7212	0	
-1.97353	27.6561	0	
-13.3058	-1.50497	0	
-10.1924	-1.50495	0	
-7.14319	-1.50292	0	
-4.09395	-1.49879	0	
-0.980298	-1.49265	0	
-12.119	-30.1832	0	
-9.63793	-30.2543	0	
-7.20799	-30.2768	0	
-4.77796	-30.2493	0	
-2.29668	-30.1734	0	
-9.06957	-47.591	0	
-8.1545	-47.7055	0	
-7.25852	-47.7432	0	
-6.36244	-47.7017	0	
-5.44733	-47.5836	0	
-5.32324	-47.1745	0	
-6.31834	-47.2895	0	
-7.29431	-47.3278	0	
-8.27034	-47.2872	0	
-9.26639	-47.1704	0	
-2.30041	-29.0747	0	
-4.83087	-29.1529	0	
-7.31387	-29.1805	0	
-9.79794	-29.1567	0	
-12.3324	-29.0829	0	
-1.09354	-8.94059e-013	0	
-4.24449	-0.0609374	0	
-7.31555	-0.0963802	0	
-10.379	-0.108617	0	
-13.5038	-0.0973284	0	
-0.757806	15.9366	0	
-3.01429	29.8348	0	
-3.72376	15.9833	0	
-1.70769	0.0460515	0	
-5.50821	29.9021	0	
-6.68407	15.9972	0	
-5.01116	0.111122	0	
-7.97601	29.9126	0	
-9.6421	15.9834	0	
-8.22294	0.143709	0	
-10.4677	29.8648	0	
-12.61	15.9419	0	
-11.453	0.145392	0	
-3.3374	40.5367	0	
-5.56535	47.2369	0	
-5.07552	40.6456	0	
-6.43368	47.3225	0	
-6.80743	40.6842	0	
-7.29466	47.3278	0	
-8.53842	40.6549	0	
-8.16375	47.2528	0	
-10.2751	40.5557	0	
-7.1043	49.1248	0	
-8.52886	46.3103	0	
-7.01189	49.2526	0	
-7.48662	46.3917	0	
-6.91977	49.2974	0	
-6.45585	46.396	0	
-6.82748	49.2617	0	
-5.41363	46.3232	0	
-6.73466	49.143	0	
-10.7342	38.8416	0	
-10.8641	27.6836	0	
-8.87376	38.9424	0	
-8.32197	27.7333	0	
-7.01954	38.978	0	
-5.8065	27.7369	0	
-5.16526	38.9504	0	
-3.26425	27.6946	0	
-3.30458	38.8576	0	
-12.9267	13.7466	0	
-11.7435	-1.50523	0	
-10.0112	13.7846	0	
-8.66592	-1.5042	0	
-7.10547	13.7993	0	
-5.62043	-1.50112	0	
-4.19967	13.7913	0	
-2.54274	-1.49599	0	
-1.28396	13.7602	0	
-12.9052	-16.6364	0	
-10.8741	-30.2252	0	
-10.0365	-16.674	0	
-8.4215	-30.2719	0	
-7.17736	-16.6844	0	
-5.99446	-30.2694	0	
-4.31819	-16.6685	0	
-3.54179	-30.2178	0	
-1.4493	-16.6253	0	
-10.7119	-40.8495	0	
-8.61035	-47.6584	0	
-8.97059	-40.9472	0	
-7.70595	-47.7343	0	
-7.23504	-40.9777	0	
-6.81102	-47.7324	0	
-5.49945	-40.9429	0	
-5.90654	-47.6528	0	
-3.75795	-40.8408	0	
-7.19554	-49.7777	0	
-5.82275	-47.2422	0	
-7.23719	-49.898	0	
-6.807	-47.3186	0	
-7.27843	-49.9363	0	
-7.78176	-47.3175	0	
-7.31963	-49.8949	0	
-8.76657	-47.2389	0	
-7.36095	-49.7715	0	
-3.69449	-40.0577	0	
-3.56965	-29.1196	0	
-5.50503	-40.154	0	
-6.07366	-29.1725	0	
-7.30803	-40.1849	0	
-8.55435	-29.1744	0	
-9.11074	-40.152	0	
-11.0607	-29.1256	0	
-10.9198	-40.0533	0	
-1.53564	-15.3426	0	
-2.67697	-0.0321982	0	
-4.43866	-15.373	0	
-5.78311	-0.0799584	0	
-7.32705	-15.3809	0	
-8.84582	-0.103723	0	
-10.2133	-15.367	0	
-11.9354	-0.104413	0	
-13.1104	-15.3309	0	
