# vtk DataFile Version 4.1
vtk output
ASCII
DATASET UNSTRUCTURED_GRID

POINTS	149	float
0	0	0	
0	0.5	0	
0	1	0	
0	1.5	0	
0	2	0	
5	0	0	
5	0.5	0	
5	1	0	
5	1.5	0	
5	2	0	
10	0	0	
10	0.5	0	
10	1	0	
10	1.5	0	
10	2	0	
15	0	0	
15	0.5	0	
15	1	0	
15	1.5	0	
15	2	0	
20	0	0	
20	0.5	0	
20	1	0	
20	1.5	0	
20	2	0	
25	0	0	
25	0.5	0	
25	1	0	
25	1.5	0	
25	2	0	
30	0	0	
30	0.5	0	
30	1	0	
30	1.5	0	
30	2	0	
35	0	0	
35	0.5	0	
35	1	0	
35	1.5	0	
35	2	0	
40	0	0	
40	0.5	0	
40	1	0	
40	1.5	0	
40	2	0	
45	0	0	
45	0.5	0	
45	1	0	
45	1.5	0	
45	2	0	
50	0	0	
50	0.5	0	
50	1	0	
50	1.5	0	
50	2	0	
2.5	0	0	
5	0.25	0	
2.5	0.5	0	
0	0.25	0	
5	0.75	0	
2.5	1	0	
0	0.75	0	
5	1.25	0	
2.5	1.5	0	
0	1.25	0	
5	1.75	0	
2.5	2	0	
0	1.75	0	
7.5	0	0	
10	0.25	0	
7.5	0.5	0	
10	0.75	0	
7.5	1	0	
10	1.25	0	
7.5	1.5	0	
10	1.75	0	
7.5	2	0	
12.5	0	0	
15	0.25	0	
12.5	0.5	0	
15	0.75	0	
12.5	1	0	
15	1.25	0	
12.5	1.5	0	
15	1.75	0	
12.5	2	0	
17.5	0	0	
20	0.25	0	
17.5	0.5	0	
20	0.75	0	
17.5	1	0	
20	1.25	0	
17.5	1.5	0	
20	1.75	0	
17.5	2	0	
22.5	0	0	
25	0.25	0	
22.5	0.5	0	
25	0.75	0	
22.5	1	0	
25	1.25	0	
22.5	1.5	0	
25	1.75	0	
22.5	2	0	
27.5	0	0	
30	0.25	0	
27.5	0.5	0	
30	0.75	0	
27.5	1	0	
30	1.25	0	
27.5	1.5	0	
30	1.75	0	
27.5	2	0	
32.5	0	0	
35	0.25	0	
32.5	0.5	0	
35	0.75	0	
32.5	1	0	
35	1.25	0	
32.5	1.5	0	
35	1.75	0	
32.5	2	0	
37.5	0	0	
40	0.25	0	
37.5	0.5	0	
40	0.75	0	
37.5	1	0	
40	1.25	0	
37.5	1.5	0	
40	1.75	0	
37.5	2	0	
42.5	0	0	
45	0.25	0	
42.5	0.5	0	
45	0.75	0	
42.5	1	0	
45	1.25	0	
42.5	1.5	0	
45	1.75	0	
42.5	2	0	
47.5	0	0	
50	0.25	0	
47.5	0.5	0	
50	0.75	0	
47.5	1	0	
50	1.25	0	
47.5	1.5	0	
50	1.75	0	
47.5	2	0	

CELLS 40	360
8	0	5	6	1	55	56	57	58	
8	1	6	7	2	57	59	60	61	
8	2	7	8	3	60	62	63	64	
8	3	8	9	4	63	65	66	67	
8	5	10	11	6	68	69	70	56	
8	6	11	12	7	70	71	72	59	
8	7	12	13	8	72	73	74	62	
8	8	13	14	9	74	75	76	65	
8	10	15	16	11	77	78	79	69	
8	11	16	17	12	79	80	81	71	
8	12	17	18	13	81	82	83	73	
8	13	18	19	14	83	84	85	75	
8	15	20	21	16	86	87	88	78	
8	16	21	22	17	88	89	90	80	
8	17	22	23	18	90	91	92	82	
8	18	23	24	19	92	93	94	84	
8	20	25	26	21	95	96	97	87	
8	21	26	27	22	97	98	99	89	
8	22	27	28	23	99	100	101	91	
8	23	28	29	24	101	102	103	93	
8	25	30	31	26	104	105	106	96	
8	26	31	32	27	106	107	108	98	
8	27	32	33	28	108	109	110	100	
8	28	33	34	29	110	111	112	102	
8	30	35	36	31	113	114	115	105	
8	31	36	37	32	115	116	117	107	
8	32	37	38	33	117	118	119	109	
8	33	38	39	34	119	120	121	111	
8	35	40	41	36	122	123	124	114	
8	36	41	42	37	124	125	126	116	
8	37	42	43	38	126	127	128	118	
8	38	43	44	39	128	129	130	120	
8	40	45	46	41	131	132	133	123	
8	41	46	47	42	133	134	135	125	
8	42	47	48	43	135	136	137	127	
8	43	48	49	44	137	138	139	129	
8	45	50	51	46	140	141	142	132	
8	46	51	52	47	142	143	144	134	
8	47	52	53	48	144	145	146	136	
8	48	53	54	49	146	147	148	138	

CELL_TYPES	40
23
23
23
23
23
23
23
23
23
23
23
23
23
23
23
23
23
23
23
23
23
23
23
23
23
23
23
23
23
23
23
23
23
23
23
23
23
23
23
23

POINT_DATA	149
VECTORS u float
-6.60986e-007	-1.30252e-006	0	
-3.16103	-0.015906	0	
-6.20365	-0.0148115	0	
-9.20741	-0.0114562	0	
-12.227	-0.0103202	0	
-1.10389	28.6858	0	
-3.7791	28.6912	0	
-6.37399	28.7012	0	
-8.96551	28.708	0	
-11.6196	28.7101	0	
-4.35641	47.8639	0	
-5.39109	47.8657	0	
-6.40181	47.8683	0	
-7.41326	47.8686	0	
-8.44751	47.8682	0	
-8.59	47.4633	0	
-7.48918	47.4643	0	
-6.41287	47.4655	0	
-5.33678	47.4646	0	
-4.23629	47.4638	0	
-11.7687	27.9791	0	
-9.06236	27.9796	0	
-6.40895	27.9801	0	
-3.75558	27.9796	0	
-1.0493	27.9792	0	
-12.7591	-2.26184	0	
-9.54681	-2.26196	0	
-6.3959	-2.26208	0	
-3.245	-2.26196	0	
-0.0326745	-2.26184	0	
-11.2123	-31.132	0	
-8.77371	-31.1326	0	
-6.37859	-31.1332	0	
-3.98344	-31.1325	0	
-1.54491	-31.1319	0	
-7.88139	-47.4016	0	
-7.11818	-47.4024	0	
-6.36101	-47.4031	0	
-5.60383	-47.4022	0	
-4.84108	-47.4014	0	
-4.37789	-46.0614	0	
-5.37016	-46.0636	0	
-6.34543	-46.0643	0	
-7.3214	-46.0632	0	
-8.31725	-46.0622	0	
-1.65578	-29.2103	0	
-3.99959	-29.2233	0	
-6.33267	-29.2304	0	
-8.67152	-29.2309	0	
-11.0329	-29.2296	0	
0.252658	-1.30253e-006	0	
-3.11672	-0.111783	0	
-6.35021	-0.190059	0	
-9.55949	-0.22528	0	
-12.8515	-0.230607	0	
-0.599291	14.757	0	
-2.44793	28.6872	0	
-3.44719	14.7647	0	
-1.58669	-0.0107715	0	
-5.07763	28.6966	0	
-6.30417	14.776	0	
-4.68454	-0.0148941	0	
-7.66705	28.705	0	
-9.17038	14.7804	0	
-7.70672	-0.0126298	0	
-10.2858	28.7094	0	
-12.0414	14.7811	0	
-10.7176	-0.0106751	0	
-2.56117	40.3463	0	
-4.87559	47.8652	0	
-4.47945	40.3443	0	
-5.89736	47.8668	0	
-6.38952	40.3418	0	
-6.90709	47.8683	0	
-8.29876	40.3415	0	
-7.92861	47.8684	0	
-10.217	40.3421	0	
-6.4904	50.3395	0	
-8.03732	47.4638	0	
-6.44958	50.3383	0	
-6.9502	47.4649	0	
-6.40989	50.3371	0	
-5.87553	47.465	0	
-6.36996	50.338	0	
-4.78878	47.4643	0	
-6.32883	50.3391	0	
-10.3053	39.7308	0	
-10.4113	27.9794	0	
-8.35646	39.7301	0	
-7.73427	27.9798	0	
-6.41248	39.7294	0	
-5.08368	27.9798	0	
-4.46846	39.7301	0	
-2.40669	27.9794	0	
-2.51956	39.7307	0	
-12.4455	13.4928	0	
-11.1479	-2.26192	0	
-9.4209	13.4926	0	
-7.96966	-2.26201	0	
-6.40325	13.4924	0	
-4.82213	-2.26201	0	
-3.3856	13.4926	0	
-1.64392	-2.2619	0	
-0.361037	13.4928	0	
-12.1561	-17.6662	0	
-9.98938	-31.1323	0	
-9.26847	-17.6658	0	
-7.57496	-31.1328	0	
-6.3875	-17.6654	0	
-5.18223	-31.1328	0	
-3.50654	-17.6658	0	
-2.76782	-31.1323	0	
-0.618874	-17.6662	0	
-9.62096	-41.3682	0	
-7.4995	-47.4022	0	
-7.99397	-41.3673	0	
-6.73946	-47.4026	0	
-6.36964	-41.3666	0	
-5.98245	-47.4025	0	
-4.74533	-41.3674	0	
-5.22263	-47.4018	0	
-3.11831	-41.3683	0	
-6.08536	-48.9332	0	
-4.87669	-46.0622	0	
-6.22076	-48.9324	0	
-5.85879	-46.0642	0	
-6.35315	-48.932	0	
-6.8328	-46.064	0	
-6.48555	-48.9327	0	
-7.81712	-46.0629	0	
-6.62045	-48.9334	0	
-2.97308	-39.3234	0	
-2.82566	-29.2181	0	
-4.65822	-39.3221	0	
-5.16503	-29.226	0	
-6.34158	-39.322	0	
-7.50184	-29.2297	0	
-8.02415	-39.3227	0	
-9.85272	-29.2296	0	
-9.70588	-39.3231	0	
-0.522406	-16.0109	0	
-1.44753	-0.0590336	0	
-3.43703	-15.9858	0	
-4.74033	-0.152082	0	
-6.33689	-15.9575	0	
-7.95295	-0.208865	0	
-9.23183	-15.9447	0	
-11.1953	-0.22852	0	
-12.1334	-15.9427	0	
