# vtk DataFile Version 4.1
vtk output
ASCII
DATASET UNSTRUCTURED_GRID

POINTS	149	float
0	0	0	
0	0.5	0	
0	1	0	
0	1.5	0	
0	2	0	
5	0	0	
5	0.5	0	
5	1	0	
5	1.5	0	
5	2	0	
10	0	0	
10	0.5	0	
10	1	0	
10	1.5	0	
10	2	0	
15	0	0	
15	0.5	0	
15	1	0	
15	1.5	0	
15	2	0	
20	0	0	
20	0.5	0	
20	1	0	
20	1.5	0	
20	2	0	
25	0	0	
25	0.5	0	
25	1	0	
25	1.5	0	
25	2	0	
30	0	0	
30	0.5	0	
30	1	0	
30	1.5	0	
30	2	0	
35	0	0	
35	0.5	0	
35	1	0	
35	1.5	0	
35	2	0	
40	0	0	
40	0.5	0	
40	1	0	
40	1.5	0	
40	2	0	
45	0	0	
45	0.5	0	
45	1	0	
45	1.5	0	
45	2	0	
50	0	0	
50	0.5	0	
50	1	0	
50	1.5	0	
50	2	0	
2.5	0	0	
5	0.25	0	
2.5	0.5	0	
0	0.25	0	
5	0.75	0	
2.5	1	0	
0	0.75	0	
5	1.25	0	
2.5	1.5	0	
0	1.25	0	
5	1.75	0	
2.5	2	0	
0	1.75	0	
7.5	0	0	
10	0.25	0	
7.5	0.5	0	
10	0.75	0	
7.5	1	0	
10	1.25	0	
7.5	1.5	0	
10	1.75	0	
7.5	2	0	
12.5	0	0	
15	0.25	0	
12.5	0.5	0	
15	0.75	0	
12.5	1	0	
15	1.25	0	
12.5	1.5	0	
15	1.75	0	
12.5	2	0	
17.5	0	0	
20	0.25	0	
17.5	0.5	0	
20	0.75	0	
17.5	1	0	
20	1.25	0	
17.5	1.5	0	
20	1.75	0	
17.5	2	0	
22.5	0	0	
25	0.25	0	
22.5	0.5	0	
25	0.75	0	
22.5	1	0	
25	1.25	0	
22.5	1.5	0	
25	1.75	0	
22.5	2	0	
27.5	0	0	
30	0.25	0	
27.5	0.5	0	
30	0.75	0	
27.5	1	0	
30	1.25	0	
27.5	1.5	0	
30	1.75	0	
27.5	2	0	
32.5	0	0	
35	0.25	0	
32.5	0.5	0	
35	0.75	0	
32.5	1	0	
35	1.25	0	
32.5	1.5	0	
35	1.75	0	
32.5	2	0	
37.5	0	0	
40	0.25	0	
37.5	0.5	0	
40	0.75	0	
37.5	1	0	
40	1.25	0	
37.5	1.5	0	
40	1.75	0	
37.5	2	0	
42.5	0	0	
45	0.25	0	
42.5	0.5	0	
45	0.75	0	
42.5	1	0	
45	1.25	0	
42.5	1.5	0	
45	1.75	0	
42.5	2	0	
47.5	0	0	
50	0.25	0	
47.5	0.5	0	
50	0.75	0	
47.5	1	0	
50	1.25	0	
47.5	1.5	0	
50	1.75	0	
47.5	2	0	

CELLS 40	360
8	0	5	6	1	55	56	57	58	
8	1	6	7	2	57	59	60	61	
8	2	7	8	3	60	62	63	64	
8	3	8	9	4	63	65	66	67	
8	5	10	11	6	68	69	70	56	
8	6	11	12	7	70	71	72	59	
8	7	12	13	8	72	73	74	62	
8	8	13	14	9	74	75	76	65	
8	10	15	16	11	77	78	79	69	
8	11	16	17	12	79	80	81	71	
8	12	17	18	13	81	82	83	73	
8	13	18	19	14	83	84	85	75	
8	15	20	21	16	86	87	88	78	
8	16	21	22	17	88	89	90	80	
8	17	22	23	18	90	91	92	82	
8	18	23	24	19	92	93	94	84	
8	20	25	26	21	95	96	97	87	
8	21	26	27	22	97	98	99	89	
8	22	27	28	23	99	100	101	91	
8	23	28	29	24	101	102	103	93	
8	25	30	31	26	104	105	106	96	
8	26	31	32	27	106	107	108	98	
8	27	32	33	28	108	109	110	100	
8	28	33	34	29	110	111	112	102	
8	30	35	36	31	113	114	115	105	
8	31	36	37	32	115	116	117	107	
8	32	37	38	33	117	118	119	109	
8	33	38	39	34	119	120	121	111	
8	35	40	41	36	122	123	124	114	
8	36	41	42	37	124	125	126	116	
8	37	42	43	38	126	127	128	118	
8	38	43	44	39	128	129	130	120	
8	40	45	46	41	131	132	133	123	
8	41	46	47	42	133	134	135	125	
8	42	47	48	43	135	136	137	127	
8	43	48	49	44	137	138	139	129	
8	45	50	51	46	140	141	142	132	
8	46	51	52	47	142	143	144	134	
8	47	52	53	48	144	145	146	136	
8	48	53	54	49	146	147	148	138	

CELL_TYPES	40
23
23
23
23
23
23
23
23
23
23
23
23
23
23
23
23
23
23
23
23
23
23
23
23
23
23
23
23
23
23
23
23
23
23
23
23
23
23
23
23

POINT_DATA	149
VECTORS u float
-43.0329	53.3781	0	
-42.2998	53.3781	0	
-41.5667	53.3781	0	
-40.8336	53.3781	0	
-40.1005	53.3781	0	
-43.0329	46.0471	0	
-42.2999	46.0471	0	
-41.5668	46.0471	0	
-40.8338	46.0471	0	
-40.1007	46.0471	0	
-43.033	38.7166	0	
-42.3	38.7166	0	
-41.5669	38.7166	0	
-40.8338	38.7166	0	
-40.1008	38.7166	0	
-43.0332	31.3856	0	
-42.3001	31.3856	0	
-41.567	31.3856	0	
-40.8339	31.3856	0	
-40.1007	31.3856	0	
-43.0331	24.0549	0	
-42.3	24.0549	0	
-41.567	24.0549	0	
-40.8339	24.0549	0	
-40.1009	24.0549	0	
-43.0332	16.7243	0	
-42.3001	16.7243	0	
-41.567	16.7243	0	
-40.8339	16.7243	0	
-40.1008	16.7243	0	
-43.0332	9.39319	0	
-42.3001	9.39319	0	
-41.567	9.39319	0	
-40.8339	9.39319	0	
-40.1007	9.39319	0	
-43.0331	2.06212	0	
-42.3	2.06212	0	
-41.567	2.06212	0	
-40.8339	2.06212	0	
-40.1008	2.06212	0	
-43.0332	-5.26883	0	
-42.3	-5.26883	0	
-41.5669	-5.26883	0	
-40.8338	-5.26883	0	
-40.1007	-5.26883	0	
-43.0331	-12.6004	0	
-42.3	-12.6004	0	
-41.5668	-12.6004	0	
-40.8337	-12.6004	0	
-40.1005	-12.6004	0	
-43.0329	-19.9314	0	
-42.2998	-19.9314	0	
-41.5667	-19.9314	0	
-40.8336	-19.9314	0	
-40.1005	-19.9314	0	
-43.0329	49.7125	0	
-42.6664	46.0471	0	
-42.2998	49.7125	0	
-42.6664	53.3781	0	
-41.9333	46.0471	0	
-41.5667	49.7125	0	
-41.9333	53.3781	0	
-41.2003	46.0471	0	
-40.8336	49.7125	0	
-41.2002	53.3781	0	
-40.4672	46.0471	0	
-40.1005	49.7125	0	
-40.467	53.3781	0	
-43.0329	42.3819	0	
-42.6665	38.7166	0	
-42.2999	42.3819	0	
-41.9334	38.7166	0	
-41.5669	42.3819	0	
-41.2004	38.7166	0	
-40.8338	42.3819	0	
-40.4673	38.7166	0	
-40.1008	42.3819	0	
-43.0331	35.0512	0	
-42.6666	31.3856	0	
-42.3	35.0512	0	
-41.9335	31.3856	0	
-41.5669	35.0512	0	
-41.2004	31.3856	0	
-40.8338	35.0512	0	
-40.4673	31.3856	0	
-40.1007	35.0512	0	
-43.0331	27.7202	0	
-42.6665	24.0549	0	
-42.3	27.7202	0	
-41.9335	24.0549	0	
-41.567	27.7202	0	
-41.2005	24.0549	0	
-40.8339	27.7202	0	
-40.4674	24.0549	0	
-40.1008	27.7202	0	
-43.0331	20.3897	0	
-42.6666	16.7243	0	
-42.3	20.3897	0	
-41.9335	16.7243	0	
-41.567	20.3897	0	
-41.2004	16.7243	0	
-40.8339	20.3897	0	
-40.4674	16.7243	0	
-40.1009	20.3897	0	
-43.0332	13.0588	0	
-42.6667	9.39319	0	
-42.3001	13.0588	0	
-41.9335	9.39319	0	
-41.567	13.0588	0	
-41.2004	9.39319	0	
-40.8339	13.0588	0	
-40.4673	9.39319	0	
-40.1008	13.0588	0	
-43.0332	5.72762	0	
-42.6666	2.06212	0	
-42.3001	5.72762	0	
-41.9335	2.06212	0	
-41.567	5.72762	0	
-41.2004	2.06212	0	
-40.8339	5.72762	0	
-40.4673	2.06212	0	
-40.1008	5.72762	0	
-43.0331	-1.60328	0	
-42.6666	-5.26883	0	
-42.3	-1.60328	0	
-41.9335	-5.26883	0	
-41.5669	-1.60328	0	
-41.2003	-5.26883	0	
-40.8338	-1.60328	0	
-40.4672	-5.26883	0	
-40.1007	-1.60328	0	
-43.0332	-8.93453	0	
-42.6666	-12.6004	0	
-42.3	-8.93453	0	
-41.9334	-12.6004	0	
-41.5669	-8.93453	0	
-41.2003	-12.6004	0	
-40.8337	-8.93453	0	
-40.4671	-12.6004	0	
-40.1006	-8.93453	0	
-43.033	-16.266	0	
-42.6664	-19.9314	0	
-42.2999	-16.266	0	
-41.9333	-19.9314	0	
-41.5668	-16.266	0	
-41.2002	-19.9314	0	
-40.8336	-16.266	0	
-40.4671	-19.9314	0	
-40.1005	-16.266	0	
