# vtk DataFile Version 4.1
vtk output
ASCII
DATASET UNSTRUCTURED_GRID

POINTS	149	float
0	0	0	
0	0.5	0	
0	1	0	
0	1.5	0	
0	2	0	
5	0	0	
5	0.5	0	
5	1	0	
5	1.5	0	
5	2	0	
10	0	0	
10	0.5	0	
10	1	0	
10	1.5	0	
10	2	0	
15	0	0	
15	0.5	0	
15	1	0	
15	1.5	0	
15	2	0	
20	0	0	
20	0.5	0	
20	1	0	
20	1.5	0	
20	2	0	
25	0	0	
25	0.5	0	
25	1	0	
25	1.5	0	
25	2	0	
30	0	0	
30	0.5	0	
30	1	0	
30	1.5	0	
30	2	0	
35	0	0	
35	0.5	0	
35	1	0	
35	1.5	0	
35	2	0	
40	0	0	
40	0.5	0	
40	1	0	
40	1.5	0	
40	2	0	
45	0	0	
45	0.5	0	
45	1	0	
45	1.5	0	
45	2	0	
50	0	0	
50	0.5	0	
50	1	0	
50	1.5	0	
50	2	0	
2.5	0	0	
5	0.25	0	
2.5	0.5	0	
0	0.25	0	
5	0.75	0	
2.5	1	0	
0	0.75	0	
5	1.25	0	
2.5	1.5	0	
0	1.25	0	
5	1.75	0	
2.5	2	0	
0	1.75	0	
7.5	0	0	
10	0.25	0	
7.5	0.5	0	
10	0.75	0	
7.5	1	0	
10	1.25	0	
7.5	1.5	0	
10	1.75	0	
7.5	2	0	
12.5	0	0	
15	0.25	0	
12.5	0.5	0	
15	0.75	0	
12.5	1	0	
15	1.25	0	
12.5	1.5	0	
15	1.75	0	
12.5	2	0	
17.5	0	0	
20	0.25	0	
17.5	0.5	0	
20	0.75	0	
17.5	1	0	
20	1.25	0	
17.5	1.5	0	
20	1.75	0	
17.5	2	0	
22.5	0	0	
25	0.25	0	
22.5	0.5	0	
25	0.75	0	
22.5	1	0	
25	1.25	0	
22.5	1.5	0	
25	1.75	0	
22.5	2	0	
27.5	0	0	
30	0.25	0	
27.5	0.5	0	
30	0.75	0	
27.5	1	0	
30	1.25	0	
27.5	1.5	0	
30	1.75	0	
27.5	2	0	
32.5	0	0	
35	0.25	0	
32.5	0.5	0	
35	0.75	0	
32.5	1	0	
35	1.25	0	
32.5	1.5	0	
35	1.75	0	
32.5	2	0	
37.5	0	0	
40	0.25	0	
37.5	0.5	0	
40	0.75	0	
37.5	1	0	
40	1.25	0	
37.5	1.5	0	
40	1.75	0	
37.5	2	0	
42.5	0	0	
45	0.25	0	
42.5	0.5	0	
45	0.75	0	
42.5	1	0	
45	1.25	0	
42.5	1.5	0	
45	1.75	0	
42.5	2	0	
47.5	0	0	
50	0.25	0	
47.5	0.5	0	
50	0.75	0	
47.5	1	0	
50	1.25	0	
47.5	1.5	0	
50	1.75	0	
47.5	2	0	

CELLS 40	360
8	0	5	6	1	55	56	57	58	
8	1	6	7	2	57	59	60	61	
8	2	7	8	3	60	62	63	64	
8	3	8	9	4	63	65	66	67	
8	5	10	11	6	68	69	70	56	
8	6	11	12	7	70	71	72	59	
8	7	12	13	8	72	73	74	62	
8	8	13	14	9	74	75	76	65	
8	10	15	16	11	77	78	79	69	
8	11	16	17	12	79	80	81	71	
8	12	17	18	13	81	82	83	73	
8	13	18	19	14	83	84	85	75	
8	15	20	21	16	86	87	88	78	
8	16	21	22	17	88	89	90	80	
8	17	22	23	18	90	91	92	82	
8	18	23	24	19	92	93	94	84	
8	20	25	26	21	95	96	97	87	
8	21	26	27	22	97	98	99	89	
8	22	27	28	23	99	100	101	91	
8	23	28	29	24	101	102	103	93	
8	25	30	31	26	104	105	106	96	
8	26	31	32	27	106	107	108	98	
8	27	32	33	28	108	109	110	100	
8	28	33	34	29	110	111	112	102	
8	30	35	36	31	113	114	115	105	
8	31	36	37	32	115	116	117	107	
8	32	37	38	33	117	118	119	109	
8	33	38	39	34	119	120	121	111	
8	35	40	41	36	122	123	124	114	
8	36	41	42	37	124	125	126	116	
8	37	42	43	38	126	127	128	118	
8	38	43	44	39	128	129	130	120	
8	40	45	46	41	131	132	133	123	
8	41	46	47	42	133	134	135	125	
8	42	47	48	43	135	136	137	127	
8	43	48	49	44	137	138	139	129	
8	45	50	51	46	140	141	142	132	
8	46	51	52	47	142	143	144	134	
8	47	52	53	48	144	145	146	136	
8	48	53	54	49	146	147	148	138	

CELL_TYPES	40
23
23
23
23
23
23
23
23
23
23
23
23
23
23
23
23
23
23
23
23
23
23
23
23
23
23
23
23
23
23
23
23
23
23
23
23
23
23
23
23

POINT_DATA	149
VECTORS u float
9.42717	22.277	0	
9.31015	22.2767	0	
9.19251	22.2765	0	
9.07497	22.2767	0	
8.95821	22.277	0	
9.43359	23.4824	0	
9.30306	23.4822	0	
9.17359	23.4821	0	
9.04427	23.4822	0	
8.91419	23.4824	0	
9.40985	24.7898	0	
9.28366	24.7895	0	
9.15765	24.7894	0	
9.03173	24.7895	0	
8.90594	24.7897	0	
9.38916	26.0031	0	
9.26867	26.0029	0	
9.14766	26.0028	0	
9.02676	26.0029	0	
8.90668	26.0031	0	
9.4067	27.269	0	
9.27431	27.2688	0	
9.14288	27.2688	0	
9.0115	27.2688	0	
8.87954	27.269	0	
9.39173	28.5669	0	
9.26662	28.5667	0	
9.14168	28.5666	0	
9.01683	28.5667	0	
8.89207	28.5669	0	
9.37628	29.7616	0	
9.25969	29.7614	0	
9.14251	29.7613	0	
9.02542	29.7614	0	
8.90924	29.7616	0	
9.39693	30.969	0	
9.27139	30.9688	0	
9.1466	30.9687	0	
9.02188	30.9688	0	
8.89681	30.969	0	
9.39063	32.1989	0	
9.27305	32.1987	0	
9.15558	32.1986	0	
9.03819	32.1987	0	
8.921	32.1989	0	
9.39445	33.3184	0	
9.28291	33.3182	0	
9.17054	33.3182	0	
9.05826	33.3183	0	
8.94712	33.3185	0	
9.43625	34.5224	0	
9.31253	34.5222	0	
9.18945	34.522	0	
9.06638	34.5221	0	
8.94293	34.5223	0	
9.42807	22.8654	0	
9.36817	23.4823	0	
9.30754	22.8654	0	
9.36891	22.2768	0	
9.23825	23.4821	0	
9.18629	22.8654	0	
9.25139	22.2766	0	
9.10893	23.4821	0	
9.06503	22.8654	0	
9.13362	22.2766	0	
8.97929	23.4823	0	
8.94464	22.8654	0	
9.01629	22.2769	0	
9.4276	24.148	0	
9.34669	24.7896	0	
9.29659	24.1479	0	
9.22062	24.7894	0	
9.16605	24.1479	0	
9.09466	24.7894	0	
9.03546	24.1479	0	
8.96879	24.7896	0	
8.90454	24.148	0	
9.39602	25.4089	0	
9.32899	26.0029	0	
9.2748	25.4088	0	
9.20817	26.0028	0	
9.15336	25.4089	0	
9.08714	26.0028	0	
9.03187	25.4088	0	
8.96654	26.0029	0	
8.91073	25.4089	0	
9.39945	26.6256	0	
9.34033	27.2689	0	
9.27278	26.6256	0	
9.20852	27.2687	0	
9.14623	26.6257	0	
9.0772	27.2688	0	
9.01964	26.6256	0	
8.9456	27.2689	0	
8.89305	26.6256	0	
9.40287	27.9324	0	
9.32912	28.5667	0	
9.27295	27.9324	0	
9.20412	28.5666	0	
9.14329	27.9324	0	
9.07922	28.5666	0	
9.01358	27.9324	0	
8.9544	28.5667	0	
8.88376	27.9324	0	
9.3821	29.1805	0	
9.31805	29.7614	0	
9.26267	29.1805	0	
9.2011	29.7613	0	
9.14313	29.1805	0	
9.0839	29.7613	0	
9.02354	29.1805	0	
8.96717	29.7614	0	
8.9042	29.1805	0	
9.38705	30.3587	0	
9.33399	30.9688	0	
9.26627	30.3587	0	
9.20892	30.9687	0	
9.14556	30.3588	0	
9.08423	30.9687	0	
9.02479	30.3587	0	
8.95941	30.9688	0	
8.90408	30.3587	0	
9.39782	31.599	0	
9.3318	32.1988	0	
9.27463	31.5989	0	
9.21428	32.1986	0	
9.15178	31.599	0	
9.09685	32.1986	0	
9.02888	31.5989	0	
8.97953	32.1987	0	
8.90579	31.599	0	
9.3873	32.7727	0	
9.33874	33.3183	0	
9.27552	32.7726	0	
9.22672	33.3182	0	
9.16344	32.7727	0	
9.11432	33.3182	0	
9.05131	32.7726	0	
9.00253	33.3183	0	
8.9396	32.7727	0	
9.42343	33.9075	0	
9.37411	34.5223	0	
9.30288	33.9075	0	
9.25089	34.522	0	
9.18317	33.9075	0	
9.12798	34.522	0	
9.06349	33.9075	0	
9.00489	34.5222	0	
8.94309	33.9075	0	
