# vtk DataFile Version 4.1
vtk output
ASCII
DATASET UNSTRUCTURED_GRID

POINTS	149	float
0	0	0	
0	0.5	0	
0	1	0	
0	1.5	0	
0	2	0	
5	0	0	
5	0.5	0	
5	1	0	
5	1.5	0	
5	2	0	
10	0	0	
10	0.5	0	
10	1	0	
10	1.5	0	
10	2	0	
15	0	0	
15	0.5	0	
15	1	0	
15	1.5	0	
15	2	0	
20	0	0	
20	0.5	0	
20	1	0	
20	1.5	0	
20	2	0	
25	0	0	
25	0.5	0	
25	1	0	
25	1.5	0	
25	2	0	
30	0	0	
30	0.5	0	
30	1	0	
30	1.5	0	
30	2	0	
35	0	0	
35	0.5	0	
35	1	0	
35	1.5	0	
35	2	0	
40	0	0	
40	0.5	0	
40	1	0	
40	1.5	0	
40	2	0	
45	0	0	
45	0.5	0	
45	1	0	
45	1.5	0	
45	2	0	
50	0	0	
50	0.5	0	
50	1	0	
50	1.5	0	
50	2	0	
2.5	0	0	
5	0.25	0	
2.5	0.5	0	
0	0.25	0	
5	0.75	0	
2.5	1	0	
0	0.75	0	
5	1.25	0	
2.5	1.5	0	
0	1.25	0	
5	1.75	0	
2.5	2	0	
0	1.75	0	
7.5	0	0	
10	0.25	0	
7.5	0.5	0	
10	0.75	0	
7.5	1	0	
10	1.25	0	
7.5	1.5	0	
10	1.75	0	
7.5	2	0	
12.5	0	0	
15	0.25	0	
12.5	0.5	0	
15	0.75	0	
12.5	1	0	
15	1.25	0	
12.5	1.5	0	
15	1.75	0	
12.5	2	0	
17.5	0	0	
20	0.25	0	
17.5	0.5	0	
20	0.75	0	
17.5	1	0	
20	1.25	0	
17.5	1.5	0	
20	1.75	0	
17.5	2	0	
22.5	0	0	
25	0.25	0	
22.5	0.5	0	
25	0.75	0	
22.5	1	0	
25	1.25	0	
22.5	1.5	0	
25	1.75	0	
22.5	2	0	
27.5	0	0	
30	0.25	0	
27.5	0.5	0	
30	0.75	0	
27.5	1	0	
30	1.25	0	
27.5	1.5	0	
30	1.75	0	
27.5	2	0	
32.5	0	0	
35	0.25	0	
32.5	0.5	0	
35	0.75	0	
32.5	1	0	
35	1.25	0	
32.5	1.5	0	
35	1.75	0	
32.5	2	0	
37.5	0	0	
40	0.25	0	
37.5	0.5	0	
40	0.75	0	
37.5	1	0	
40	1.25	0	
37.5	1.5	0	
40	1.75	0	
37.5	2	0	
42.5	0	0	
45	0.25	0	
42.5	0.5	0	
45	0.75	0	
42.5	1	0	
45	1.25	0	
42.5	1.5	0	
45	1.75	0	
42.5	2	0	
47.5	0	0	
50	0.25	0	
47.5	0.5	0	
50	0.75	0	
47.5	1	0	
50	1.25	0	
47.5	1.5	0	
50	1.75	0	
47.5	2	0	

CELLS 40	360
8	0	5	6	1	55	56	57	58	
8	1	6	7	2	57	59	60	61	
8	2	7	8	3	60	62	63	64	
8	3	8	9	4	63	65	66	67	
8	5	10	11	6	68	69	70	56	
8	6	11	12	7	70	71	72	59	
8	7	12	13	8	72	73	74	62	
8	8	13	14	9	74	75	76	65	
8	10	15	16	11	77	78	79	69	
8	11	16	17	12	79	80	81	71	
8	12	17	18	13	81	82	83	73	
8	13	18	19	14	83	84	85	75	
8	15	20	21	16	86	87	88	78	
8	16	21	22	17	88	89	90	80	
8	17	22	23	18	90	91	92	82	
8	18	23	24	19	92	93	94	84	
8	20	25	26	21	95	96	97	87	
8	21	26	27	22	97	98	99	89	
8	22	27	28	23	99	100	101	91	
8	23	28	29	24	101	102	103	93	
8	25	30	31	26	104	105	106	96	
8	26	31	32	27	106	107	108	98	
8	27	32	33	28	108	109	110	100	
8	28	33	34	29	110	111	112	102	
8	30	35	36	31	113	114	115	105	
8	31	36	37	32	115	116	117	107	
8	32	37	38	33	117	118	119	109	
8	33	38	39	34	119	120	121	111	
8	35	40	41	36	122	123	124	114	
8	36	41	42	37	124	125	126	116	
8	37	42	43	38	126	127	128	118	
8	38	43	44	39	128	129	130	120	
8	40	45	46	41	131	132	133	123	
8	41	46	47	42	133	134	135	125	
8	42	47	48	43	135	136	137	127	
8	43	48	49	44	137	138	139	129	
8	45	50	51	46	140	141	142	132	
8	46	51	52	47	142	143	144	134	
8	47	52	53	48	144	145	146	136	
8	48	53	54	49	146	147	148	138	

CELL_TYPES	40
23
23
23
23
23
23
23
23
23
23
23
23
23
23
23
23
23
23
23
23
23
23
23
23
23
23
23
23
23
23
23
23
23
23
23
23
23
23
23
23

POINT_DATA	149
VECTORS u float
7.23193	-39.6046	0	
6.80084	-39.6615	0	
6.26112	-39.6875	0	
5.73753	-39.6525	0	
5.35074	-39.5964	0	
8.34482	-28.9526	0	
5.48061	-28.9944	0	
2.8154	-29.0049	0	
0.1737	-28.9934	0	
-2.61232	-28.9525	0	
3.71651	-0.657539	0	
1.80852	-0.698826	0	
-0.0589213	-0.713688	0	
-1.91043	-0.699881	0	
-3.74751	-0.658536	0	
-0.848499	7.64274	0	
-1.2897	7.60402	0	
-1.81708	7.59323	0	
-2.32683	7.6052	0	
-2.69398	7.64535	0	
1.12977	20.0334	0	
-0.855178	19.9951	0	
-2.67169	19.9833	0	
-4.47626	19.9949	0	
-6.38599	20.0346	0	
-2.66812	32.3791	0	
-2.79654	32.3403	0	
-2.8987	32.3294	0	
-2.98383	32.3414	0	
-3.04684	32.3759	0	
-6.21968	21.4797	0	
-4.41302	21.4417	0	
-2.71747	21.4324	0	
-1.00506	21.4435	0	
0.874465	21.4807	0	
-2.96726	9.50867	0	
-2.52409	9.47261	0	
-1.94994	9.46314	0	
-1.36074	9.47158	0	
-0.83791	9.51093	0	
-4.31843	-0.133465	0	
-2.32654	-0.17184	0	
-0.318503	-0.185794	0	
1.7052	-0.173902	0	
3.76801	-0.135581	0	
-3.50311	-30.1952	0	
-0.460928	-30.2291	0	
2.43238	-30.2365	0	
5.34286	-30.2251	0	
8.45846	-30.1862	0	
4.22653	-44.121	0	
4.99147	-44.1711	0	
5.87853	-44.2024	0	
6.76962	-44.1837	0	
7.57899	-44.1391	0	
7.37992	-36.8593	0	
6.88351	-28.9844	0	
6.31823	-36.858	0	
7.0614	-39.637	0	
4.13461	-29.0068	0	
5.12375	-36.8488	0	
6.54252	-39.6795	0	
1.49488	-29.0052	0	
3.92875	-36.8574	0	
5.97789	-39.6762	0	
-1.20726	-28.9849	0	
2.89347	-36.8564	0	
5.49052	-39.6271	0	
7.12776	-12.4362	0	
2.74991	-0.687894	0	
4.24877	-12.4446	0	
0.867223	-0.714057	0	
1.45489	-12.4401	0	
-0.989804	-0.714887	0	
-1.3481	-12.4447	0	
-2.83529	-0.688591	0	
-4.21107	-12.4363	0	
0.850125	6.29405	0	
-1.05736	7.6119	0	
0.0385031	6.2851	0	
-1.55234	7.5924	0	
-0.808941	6.2897	0	
-2.08486	7.59248	0	
-1.66591	6.28447	0	
-2.54112	7.6142	0	
-2.46085	6.29252	0	
0.411524	12.7193	0	
0.105774	20.0034	0	
-0.84086	12.719	0	
-1.77659	19.9825	0	
-2.07082	12.7299	0	
-3.57244	19.9828	0	
-3.31029	12.7188	0	
-5.41791	20.0036	0	
-4.5466	12.7186	0	
-0.128995	29.5104	0	
-2.74211	32.3492	0	
-1.38644	29.5014	0	
-2.85323	32.3275	0	
-2.59935	29.5056	0	
-2.94821	32.3282	0	
-3.82183	29.501	0	
-3.02494	32.3482	0	
-5.06219	29.5104	0	
-4.79252	30.3644	0	
-5.30424	21.4495	0	
-3.69678	30.3554	0	
-3.56448	21.4305	0	
-2.61884	30.3609	0	
-1.87394	21.4313	0	
-1.55068	30.3564	0	
-0.0958672	21.4508	0	
-0.438262	30.367	0	
-4.54602	14.6242	0	
-2.77511	9.47948	0	
-3.35548	14.6237	0	
-2.24954	9.46117	0	
-2.15489	14.6343	0	
-1.65625	9.46137	0	
-0.964279	14.6231	0	
-1.08843	9.47965	0	
0.241203	14.6241	0	
-2.92524	7.55736	0	
-3.32929	-0.162723	0	
-1.99509	7.54857	0	
-1.32749	-0.186592	0	
-1.00594	7.55426	0	
0.686729	-0.188375	0	
-0.0254712	7.54927	0	
2.72444	-0.164666	0	
0.921356	7.55792	0	
-4.89058	-12.6729	0	
-1.9706	-30.2234	0	
-1.85366	-12.683	0	
0.985261	-30.2392	0	
1.12807	-12.6784	0	
3.87413	-30.2367	0	
4.09982	-12.6823	0	
6.87158	-30.2168	0	
7.15137	-12.6732	0	
1.84953	-39.5885	0	
4.55769	-44.1494	0	
3.21297	-39.5915	0	
5.41583	-44.1918	0	
4.73327	-39.584	0	
6.33594	-44.1991	0	
6.25665	-39.5937	0	
7.21759	-44.165	0	
7.64869	-39.5927	0	
