# vtk DataFile Version 4.1
vtk output
ASCII
DATASET UNSTRUCTURED_GRID

POINTS	149	float
0	0	0	
0	0.5	0	
0	1	0	
0	1.5	0	
0	2	0	
5	0	0	
5	0.5	0	
5	1	0	
5	1.5	0	
5	2	0	
10	0	0	
10	0.5	0	
10	1	0	
10	1.5	0	
10	2	0	
15	0	0	
15	0.5	0	
15	1	0	
15	1.5	0	
15	2	0	
20	0	0	
20	0.5	0	
20	1	0	
20	1.5	0	
20	2	0	
25	0	0	
25	0.5	0	
25	1	0	
25	1.5	0	
25	2	0	
30	0	0	
30	0.5	0	
30	1	0	
30	1.5	0	
30	2	0	
35	0	0	
35	0.5	0	
35	1	0	
35	1.5	0	
35	2	0	
40	0	0	
40	0.5	0	
40	1	0	
40	1.5	0	
40	2	0	
45	0	0	
45	0.5	0	
45	1	0	
45	1.5	0	
45	2	0	
50	0	0	
50	0.5	0	
50	1	0	
50	1.5	0	
50	2	0	
2.5	0	0	
5	0.25	0	
2.5	0.5	0	
0	0.25	0	
5	0.75	0	
2.5	1	0	
0	0.75	0	
5	1.25	0	
2.5	1.5	0	
0	1.25	0	
5	1.75	0	
2.5	2	0	
0	1.75	0	
7.5	0	0	
10	0.25	0	
7.5	0.5	0	
10	0.75	0	
7.5	1	0	
10	1.25	0	
7.5	1.5	0	
10	1.75	0	
7.5	2	0	
12.5	0	0	
15	0.25	0	
12.5	0.5	0	
15	0.75	0	
12.5	1	0	
15	1.25	0	
12.5	1.5	0	
15	1.75	0	
12.5	2	0	
17.5	0	0	
20	0.25	0	
17.5	0.5	0	
20	0.75	0	
17.5	1	0	
20	1.25	0	
17.5	1.5	0	
20	1.75	0	
17.5	2	0	
22.5	0	0	
25	0.25	0	
22.5	0.5	0	
25	0.75	0	
22.5	1	0	
25	1.25	0	
22.5	1.5	0	
25	1.75	0	
22.5	2	0	
27.5	0	0	
30	0.25	0	
27.5	0.5	0	
30	0.75	0	
27.5	1	0	
30	1.25	0	
27.5	1.5	0	
30	1.75	0	
27.5	2	0	
32.5	0	0	
35	0.25	0	
32.5	0.5	0	
35	0.75	0	
32.5	1	0	
35	1.25	0	
32.5	1.5	0	
35	1.75	0	
32.5	2	0	
37.5	0	0	
40	0.25	0	
37.5	0.5	0	
40	0.75	0	
37.5	1	0	
40	1.25	0	
37.5	1.5	0	
40	1.75	0	
37.5	2	0	
42.5	0	0	
45	0.25	0	
42.5	0.5	0	
45	0.75	0	
42.5	1	0	
45	1.25	0	
42.5	1.5	0	
45	1.75	0	
42.5	2	0	
47.5	0	0	
50	0.25	0	
47.5	0.5	0	
50	0.75	0	
47.5	1	0	
50	1.25	0	
47.5	1.5	0	
50	1.75	0	
47.5	2	0	

CELLS 40	360
8	0	5	6	1	55	56	57	58	
8	1	6	7	2	57	59	60	61	
8	2	7	8	3	60	62	63	64	
8	3	8	9	4	63	65	66	67	
8	5	10	11	6	68	69	70	56	
8	6	11	12	7	70	71	72	59	
8	7	12	13	8	72	73	74	62	
8	8	13	14	9	74	75	76	65	
8	10	15	16	11	77	78	79	69	
8	11	16	17	12	79	80	81	71	
8	12	17	18	13	81	82	83	73	
8	13	18	19	14	83	84	85	75	
8	15	20	21	16	86	87	88	78	
8	16	21	22	17	88	89	90	80	
8	17	22	23	18	90	91	92	82	
8	18	23	24	19	92	93	94	84	
8	20	25	26	21	95	96	97	87	
8	21	26	27	22	97	98	99	89	
8	22	27	28	23	99	100	101	91	
8	23	28	29	24	101	102	103	93	
8	25	30	31	26	104	105	106	96	
8	26	31	32	27	106	107	108	98	
8	27	32	33	28	108	109	110	100	
8	28	33	34	29	110	111	112	102	
8	30	35	36	31	113	114	115	105	
8	31	36	37	32	115	116	117	107	
8	32	37	38	33	117	118	119	109	
8	33	38	39	34	119	120	121	111	
8	35	40	41	36	122	123	124	114	
8	36	41	42	37	124	125	126	116	
8	37	42	43	38	126	127	128	118	
8	38	43	44	39	128	129	130	120	
8	40	45	46	41	131	132	133	123	
8	41	46	47	42	133	134	135	125	
8	42	47	48	43	135	136	137	127	
8	43	48	49	44	137	138	139	129	
8	45	50	51	46	140	141	142	132	
8	46	51	52	47	142	143	144	134	
8	47	52	53	48	144	145	146	136	
8	48	53	54	49	146	147	148	138	

CELL_TYPES	40
23
23
23
23
23
23
23
23
23
23
23
23
23
23
23
23
23
23
23
23
23
23
23
23
23
23
23
23
23
23
23
23
23
23
23
23
23
23
23
23

POINT_DATA	149
VECTORS u float
-2.39364	-5.69711	0	
-2.36002	-5.69726	0	
-2.32668	-5.69732	0	
-2.2933	-5.69724	0	
-2.25957	-5.69709	0	
-2.39079	-6.01764	0	
-2.36317	-6.01775	0	
-2.33508	-6.01777	0	
-2.30692	-6.01774	0	
-2.2791	-6.01764	0	
-2.40133	-6.29296	0	
-2.37178	-6.29306	0	
-2.34215	-6.2931	0	
-2.31249	-6.29306	0	
-2.28276	-6.29296	0	
-2.41051	-6.60999	0	
-2.37844	-6.61009	0	
-2.34659	-6.61011	0	
-2.31469	-6.61008	0	
-2.28243	-6.60998	0	
-2.40273	-6.90369	0	
-2.37593	-6.90378	0	
-2.34871	-6.90381	0	
-2.32146	-6.90378	0	
-2.29447	-6.90368	0	
-2.40938	-7.18323	0	
-2.37935	-7.18333	0	
-2.34924	-7.18336	0	
-2.3191	-7.18332	0	
-2.28891	-7.18324	0	
-2.41623	-7.50857	0	
-2.38242	-7.50866	0	
-2.34887	-7.50868	0	
-2.31528	-7.50865	0	
-2.28129	-7.50856	0	
-2.40707	-7.82827	0	
-2.37723	-7.82836	0	
-2.34706	-7.82838	0	
-2.31685	-7.82836	0	
-2.28681	-7.82826	0	
-2.40987	-8.13796	0	
-2.3765	-8.13805	0	
-2.34307	-8.13809	0	
-2.30962	-8.13806	0	
-2.27607	-8.13797	0	
-2.40817	-8.49666	0	
-2.37212	-8.49674	0	
-2.33644	-8.49676	0	
-2.30071	-8.49673	0	
-2.26448	-8.49663	0	
-2.38962	-8.81786	0	
-2.35897	-8.81798	0	
-2.32804	-8.81805	0	
-2.2971	-8.81801	0	
-2.26634	-8.81791	0	
-2.39324	-5.86374	0	
-2.37705	-6.01772	0	
-2.36118	-5.86373	0	
-2.37672	-5.69719	0	
-2.34916	-6.01778	0	
-2.32944	-5.86371	0	
-2.34333	-5.6973	0	
-2.321	-6.01777	0	
-2.29771	-5.86373	0	
-2.31004	-5.6973	0	
-2.29299	-6.01772	0	
-2.26559	-5.86373	0	
-2.27656	-5.69717	0	
-2.39345	-6.15003	0	
-2.38658	-6.29303	0	
-2.36604	-6.15005	0	
-2.35699	-6.2931	0	
-2.33843	-6.15004	0	
-2.32734	-6.2931	0	
-2.31083	-6.15005	0	
-2.29765	-6.29303	0	
-2.28338	-6.15003	0	
-2.40747	-6.44593	0	
-2.39444	-6.61007	0	
-2.37572	-6.44596	0	
-2.36251	-6.61012	0	
-2.34406	-6.44594	0	
-2.33067	-6.61012	0	
-2.31243	-6.44596	0	
-2.29864	-6.61006	0	
-2.28064	-6.44594	0	
-2.40595	-6.76146	0	
-2.38941	-6.90376	0	
-2.37661	-6.76146	0	
-2.36235	-6.90381	0	
-2.34722	-6.76143	0	
-2.33508	-6.90381	0	
-2.31785	-6.76146	0	
-2.30793	-6.90376	0	
-2.28848	-6.76146	0	
-2.40444	-7.03704	0	
-2.39439	-7.18331	0	
-2.37654	-7.03706	0	
-2.36431	-7.18336	0	
-2.34853	-7.03705	0	
-2.33419	-7.18336	0	
-2.32054	-7.03706	0	
-2.30403	-7.18331	0	
-2.2926	-7.03704	0	
-2.41365	-7.33867	0	
-2.3993	-7.50864	0	
-2.3811	-7.33869	0	
-2.36565	-7.50869	0	
-2.3486	-7.33868	0	
-2.33211	-7.50868	0	
-2.31612	-7.33869	0	
-2.29836	-7.50864	0	
-2.28353	-7.33866	0	
-2.41146	-7.67132	0	
-2.39223	-7.82834	0	
-2.37951	-7.67132	0	
-2.36218	-7.82838	0	
-2.34752	-7.6713	0	
-2.33196	-7.82838	0	
-2.31556	-7.67132	0	
-2.3018	-7.82834	0	
-2.28358	-7.67132	0	
-2.40668	-7.97644	0	
-2.3932	-8.13803	0	
-2.37579	-7.97646	0	
-2.3598	-8.13809	0	
-2.34476	-7.97645	0	
-2.32636	-8.1381	0	
-2.31375	-7.97646	0	
-2.29287	-8.13804	0	
-2.28282	-7.97644	0	
-2.41134	-8.31109	0	
-2.39012	-8.49673	0	
-2.3754	-8.31111	0	
-2.35428	-8.49677	0	
-2.33958	-8.3111	0	
-2.31861	-8.49676	0	
-2.3038	-8.31111	0	
-2.28267	-8.49671	0	
-2.26782	-8.31109	0	
-2.39531	-8.663	0	
-2.37442	-8.81793	0	
-2.36326	-8.66301	0	
-2.34355	-8.81803	0	
-2.33083	-8.66299	0	
-2.31254	-8.81805	0	
-2.29839	-8.66302	0	
-2.28162	-8.81797	0	
-2.26627	-8.66301	0	
