# vtk DataFile Version 4.1
vtk output
ASCII
DATASET UNSTRUCTURED_GRID

POINTS	149	float
0	0	0	
0	0.5	0	
0	1	0	
0	1.5	0	
0	2	0	
5	0	0	
5	0.5	0	
5	1	0	
5	1.5	0	
5	2	0	
10	0	0	
10	0.5	0	
10	1	0	
10	1.5	0	
10	2	0	
15	0	0	
15	0.5	0	
15	1	0	
15	1.5	0	
15	2	0	
20	0	0	
20	0.5	0	
20	1	0	
20	1.5	0	
20	2	0	
25	0	0	
25	0.5	0	
25	1	0	
25	1.5	0	
25	2	0	
30	0	0	
30	0.5	0	
30	1	0	
30	1.5	0	
30	2	0	
35	0	0	
35	0.5	0	
35	1	0	
35	1.5	0	
35	2	0	
40	0	0	
40	0.5	0	
40	1	0	
40	1.5	0	
40	2	0	
45	0	0	
45	0.5	0	
45	1	0	
45	1.5	0	
45	2	0	
50	0	0	
50	0.5	0	
50	1	0	
50	1.5	0	
50	2	0	
2.5	0	0	
5	0.25	0	
2.5	0.5	0	
0	0.25	0	
5	0.75	0	
2.5	1	0	
0	0.75	0	
5	1.25	0	
2.5	1.5	0	
0	1.25	0	
5	1.75	0	
2.5	2	0	
0	1.75	0	
7.5	0	0	
10	0.25	0	
7.5	0.5	0	
10	0.75	0	
7.5	1	0	
10	1.25	0	
7.5	1.5	0	
10	1.75	0	
7.5	2	0	
12.5	0	0	
15	0.25	0	
12.5	0.5	0	
15	0.75	0	
12.5	1	0	
15	1.25	0	
12.5	1.5	0	
15	1.75	0	
12.5	2	0	
17.5	0	0	
20	0.25	0	
17.5	0.5	0	
20	0.75	0	
17.5	1	0	
20	1.25	0	
17.5	1.5	0	
20	1.75	0	
17.5	2	0	
22.5	0	0	
25	0.25	0	
22.5	0.5	0	
25	0.75	0	
22.5	1	0	
25	1.25	0	
22.5	1.5	0	
25	1.75	0	
22.5	2	0	
27.5	0	0	
30	0.25	0	
27.5	0.5	0	
30	0.75	0	
27.5	1	0	
30	1.25	0	
27.5	1.5	0	
30	1.75	0	
27.5	2	0	
32.5	0	0	
35	0.25	0	
32.5	0.5	0	
35	0.75	0	
32.5	1	0	
35	1.25	0	
32.5	1.5	0	
35	1.75	0	
32.5	2	0	
37.5	0	0	
40	0.25	0	
37.5	0.5	0	
40	0.75	0	
37.5	1	0	
40	1.25	0	
37.5	1.5	0	
40	1.75	0	
37.5	2	0	
42.5	0	0	
45	0.25	0	
42.5	0.5	0	
45	0.75	0	
42.5	1	0	
45	1.25	0	
42.5	1.5	0	
45	1.75	0	
42.5	2	0	
47.5	0	0	
50	0.25	0	
47.5	0.5	0	
50	0.75	0	
47.5	1	0	
50	1.25	0	
47.5	1.5	0	
50	1.75	0	
47.5	2	0	

CELLS 40	360
8	0	5	6	1	55	56	57	58	
8	1	6	7	2	57	59	60	61	
8	2	7	8	3	60	62	63	64	
8	3	8	9	4	63	65	66	67	
8	5	10	11	6	68	69	70	56	
8	6	11	12	7	70	71	72	59	
8	7	12	13	8	72	73	74	62	
8	8	13	14	9	74	75	76	65	
8	10	15	16	11	77	78	79	69	
8	11	16	17	12	79	80	81	71	
8	12	17	18	13	81	82	83	73	
8	13	18	19	14	83	84	85	75	
8	15	20	21	16	86	87	88	78	
8	16	21	22	17	88	89	90	80	
8	17	22	23	18	90	91	92	82	
8	18	23	24	19	92	93	94	84	
8	20	25	26	21	95	96	97	87	
8	21	26	27	22	97	98	99	89	
8	22	27	28	23	99	100	101	91	
8	23	28	29	24	101	102	103	93	
8	25	30	31	26	104	105	106	96	
8	26	31	32	27	106	107	108	98	
8	27	32	33	28	108	109	110	100	
8	28	33	34	29	110	111	112	102	
8	30	35	36	31	113	114	115	105	
8	31	36	37	32	115	116	117	107	
8	32	37	38	33	117	118	119	109	
8	33	38	39	34	119	120	121	111	
8	35	40	41	36	122	123	124	114	
8	36	41	42	37	124	125	126	116	
8	37	42	43	38	126	127	128	118	
8	38	43	44	39	128	129	130	120	
8	40	45	46	41	131	132	133	123	
8	41	46	47	42	133	134	135	125	
8	42	47	48	43	135	136	137	127	
8	43	48	49	44	137	138	139	129	
8	45	50	51	46	140	141	142	132	
8	46	51	52	47	142	143	144	134	
8	47	52	53	48	144	145	146	136	
8	48	53	54	49	146	147	148	138	

CELL_TYPES	40
23
23
23
23
23
23
23
23
23
23
23
23
23
23
23
23
23
23
23
23
23
23
23
23
23
23
23
23
23
23
23
23
23
23
23
23
23
23
23
23

POINT_DATA	149
VECTORS u float
9.60078	-49.9052	0	
10.1792	-50.0213	0	
10.5696	-50.069	0	
11.0025	-50.0087	0	
11.6693	-49.9106	0	
11.493	-45.4759	0	
8.12471	-45.5529	0	
5.06535	-45.5693	0	
2.056	-45.5431	0	
-1.16886	-45.4689	0	
4.55045	-11.0145	0	
2.39886	-11.0862	0	
0.3001	-11.1181	0	
-1.77572	-11.0903	0	
-3.80993	-11.0186	0	
-1.09404	-2.43921	0	
-1.90942	-2.5032	0	
-2.86638	-2.52026	0	
-3.79255	-2.49857	0	
-4.47658	-2.42885	0	
4.49977	25.471	0	
-0.0817699	25.4102	0	
-4.33346	25.3903	0	
-8.57775	25.4094	0	
-13.0231	25.4758	0	
-1.17036	60.9539	0	
-2.95267	60.8891	0	
-4.6545	60.8704	0	
-6.32826	60.8935	0	
-8.0144	60.9404	0	
-8.63953	55.0302	0	
-6.50108	54.9714	0	
-4.53292	54.9631	0	
-2.53729	54.9793	0	
-0.272216	55.0346	0	
-5.767	38.2514	0	
-4.70007	38.1994	0	
-3.43233	38.1888	0	
-2.1445	38.1953	0	
-0.923507	38.2608	0	
-10.4189	12.8876	0	
-5.61104	12.8285	0	
-0.793049	12.8006	0	
4.04674	12.8197	0	
8.97194	12.8786	0	
-11.5309	-56.9098	0	
-3.8942	-56.9553	0	
3.46018	-56.9647	0	
10.839	-56.9442	0	
18.5999	-56.8794	0	
-0.125753	-109.851	0	
4.34415	-109.924	0	
8.96354	-109.969	0	
13.5761	-109.951	0	
18.1348	-109.886	0	
9.86415	-51.884	0	
9.76414	-45.5306	0	
9.42861	-51.8766	0	
9.96311	-49.9699	0	
6.57429	-45.5749	0	
8.77866	-51.8626	0	
10.3899	-50.0526	0	
3.56194	-45.5652	0	
8.1219	-51.8786	0	
10.7483	-50.0511	0	
0.461139	-45.5262	0	
7.72124	-51.8785	0	
11.2492	-49.9623	0	
9.73048	-24.854	0	
3.45761	-11.0654	0	
6.206	-24.8658	0	
1.33687	-11.1145	0	
2.81275	-24.8577	0	
-0.747594	-11.1179	0	
-0.592827	-24.8663	0	
-2.80561	-11.0683	0	
-4.09318	-24.8543	0	
0.631049	-3.45834	0	
-1.4807	-2.49038	0	
-0.191152	-3.47272	0	
-2.38441	-2.52088	0	
-1.08459	-3.46531	0	
-3.35074	-2.52064	0	
-1.99278	-3.47525	0	
-4.18681	-2.4812	0	
-2.78928	-3.46445	0	
2.27028	8.10698	0	
2.15262	25.4231	0	
-0.544	8.10772	0	
-2.23038	25.3898	0	
-3.31568	8.12513	0	
-6.44996	25.3912	0	
-6.10218	8.10725	0	
-10.7722	25.4243	0	
-8.89338	8.10412	0	
2.88601	48.2592	0	
-2.08143	60.9041	0	
-0.701915	48.2443	0	
-3.81237	60.8681	0	
-4.20725	48.2504	0	
-5.50344	60.8708	0	
-7.72753	48.2427	0	
-7.1841	60.8997	0	
-11.2882	48.2589	0	
-5.46931	64.5769	0	
-7.55126	54.9824	0	
-4.86555	64.5619	0	
-5.51602	54.9575	0	
-4.2931	64.5728	0	
-3.55437	54.9607	0	
-3.73655	64.5659	0	
-1.45257	54.9881	0	
-3.10729	64.5875	0	
-7.02884	46.7038	0	
-5.28092	38.2076	0	
-5.36663	46.7026	0	
-4.08604	38.1829	0	
-3.67725	46.7175	0	
-2.79279	38.1838	0	
-2.00453	46.7	0	
-1.51608	38.2084	0	
-0.323779	46.7034	0	
-6.97471	31.7101	0	
-8.02621	12.8415	0	
-4.49448	31.6952	0	
-3.20999	12.8021	0	
-1.91774	31.7061	0	
1.61695	12.7947	0	
0.647652	31.6981	0	
6.49059	12.8333	0	
3.15364	31.7123	0	
-12.527	-16.5914	0	
-7.69319	-56.9497	0	
-5.50214	-16.6101	0	
-0.217551	-56.9703	0	
1.44057	-16.6019	0	
7.12706	-56.9632	0	
8.36738	-16.6072	0	
14.6709	-56.9295	0	
15.4107	-16.5924	0	
-3.60118	-86.6871	0	
2.0324	-109.893	0	
1.64888	-86.6949	0	
6.62546	-109.954	0	
7.14114	-86.6831	0	
11.2864	-109.971	0	
12.6413	-86.6996	0	
15.9211	-109.924	0	
17.9352	-86.6981	0	
