# vtk DataFile Version 4.1
vtk output
ASCII
DATASET UNSTRUCTURED_GRID

POINTS	149	float
0	0	0	
0	0.5	0	
0	1	0	
0	1.5	0	
0	2	0	
5	0	0	
5	0.5	0	
5	1	0	
5	1.5	0	
5	2	0	
10	0	0	
10	0.5	0	
10	1	0	
10	1.5	0	
10	2	0	
15	0	0	
15	0.5	0	
15	1	0	
15	1.5	0	
15	2	0	
20	0	0	
20	0.5	0	
20	1	0	
20	1.5	0	
20	2	0	
25	0	0	
25	0.5	0	
25	1	0	
25	1.5	0	
25	2	0	
30	0	0	
30	0.5	0	
30	1	0	
30	1.5	0	
30	2	0	
35	0	0	
35	0.5	0	
35	1	0	
35	1.5	0	
35	2	0	
40	0	0	
40	0.5	0	
40	1	0	
40	1.5	0	
40	2	0	
45	0	0	
45	0.5	0	
45	1	0	
45	1.5	0	
45	2	0	
50	0	0	
50	0.5	0	
50	1	0	
50	1.5	0	
50	2	0	
2.5	0	0	
5	0.25	0	
2.5	0.5	0	
0	0.25	0	
5	0.75	0	
2.5	1	0	
0	0.75	0	
5	1.25	0	
2.5	1.5	0	
0	1.25	0	
5	1.75	0	
2.5	2	0	
0	1.75	0	
7.5	0	0	
10	0.25	0	
7.5	0.5	0	
10	0.75	0	
7.5	1	0	
10	1.25	0	
7.5	1.5	0	
10	1.75	0	
7.5	2	0	
12.5	0	0	
15	0.25	0	
12.5	0.5	0	
15	0.75	0	
12.5	1	0	
15	1.25	0	
12.5	1.5	0	
15	1.75	0	
12.5	2	0	
17.5	0	0	
20	0.25	0	
17.5	0.5	0	
20	0.75	0	
17.5	1	0	
20	1.25	0	
17.5	1.5	0	
20	1.75	0	
17.5	2	0	
22.5	0	0	
25	0.25	0	
22.5	0.5	0	
25	0.75	0	
22.5	1	0	
25	1.25	0	
22.5	1.5	0	
25	1.75	0	
22.5	2	0	
27.5	0	0	
30	0.25	0	
27.5	0.5	0	
30	0.75	0	
27.5	1	0	
30	1.25	0	
27.5	1.5	0	
30	1.75	0	
27.5	2	0	
32.5	0	0	
35	0.25	0	
32.5	0.5	0	
35	0.75	0	
32.5	1	0	
35	1.25	0	
32.5	1.5	0	
35	1.75	0	
32.5	2	0	
37.5	0	0	
40	0.25	0	
37.5	0.5	0	
40	0.75	0	
37.5	1	0	
40	1.25	0	
37.5	1.5	0	
40	1.75	0	
37.5	2	0	
42.5	0	0	
45	0.25	0	
42.5	0.5	0	
45	0.75	0	
42.5	1	0	
45	1.25	0	
42.5	1.5	0	
45	1.75	0	
42.5	2	0	
47.5	0	0	
50	0.25	0	
47.5	0.5	0	
50	0.75	0	
47.5	1	0	
50	1.25	0	
47.5	1.5	0	
50	1.75	0	
47.5	2	0	

CELLS 40	360
8	0	5	6	1	55	56	57	58	
8	1	6	7	2	57	59	60	61	
8	2	7	8	3	60	62	63	64	
8	3	8	9	4	63	65	66	67	
8	5	10	11	6	68	69	70	56	
8	6	11	12	7	70	71	72	59	
8	7	12	13	8	72	73	74	62	
8	8	13	14	9	74	75	76	65	
8	10	15	16	11	77	78	79	69	
8	11	16	17	12	79	80	81	71	
8	12	17	18	13	81	82	83	73	
8	13	18	19	14	83	84	85	75	
8	15	20	21	16	86	87	88	78	
8	16	21	22	17	88	89	90	80	
8	17	22	23	18	90	91	92	82	
8	18	23	24	19	92	93	94	84	
8	20	25	26	21	95	96	97	87	
8	21	26	27	22	97	98	99	89	
8	22	27	28	23	99	100	101	91	
8	23	28	29	24	101	102	103	93	
8	25	30	31	26	104	105	106	96	
8	26	31	32	27	106	107	108	98	
8	27	32	33	28	108	109	110	100	
8	28	33	34	29	110	111	112	102	
8	30	35	36	31	113	114	115	105	
8	31	36	37	32	115	116	117	107	
8	32	37	38	33	117	118	119	109	
8	33	38	39	34	119	120	121	111	
8	35	40	41	36	122	123	124	114	
8	36	41	42	37	124	125	126	116	
8	37	42	43	38	126	127	128	118	
8	38	43	44	39	128	129	130	120	
8	40	45	46	41	131	132	133	123	
8	41	46	47	42	133	134	135	125	
8	42	47	48	43	135	136	137	127	
8	43	48	49	44	137	138	139	129	
8	45	50	51	46	140	141	142	132	
8	46	51	52	47	142	143	144	134	
8	47	52	53	48	144	145	146	136	
8	48	53	54	49	146	147	148	138	

CELL_TYPES	40
23
23
23
23
23
23
23
23
23
23
23
23
23
23
23
23
23
23
23
23
23
23
23
23
23
23
23
23
23
23
23
23
23
23
23
23
23
23
23
23

POINT_DATA	149
VECTORS u float
15.8291	-70.2039	0	
8.01746	-70.2011	0	
0.318315	-70.1979	0	
-7.38028	-70.2006	0	
-15.1899	-70.2032	0	
13.3533	3.7811	0	
6.64629	3.78207	0	
0.139998	3.78439	0	
-6.36529	3.78199	0	
-13.0687	3.781	0	
2.51873	45.7334	0	
1.24853	45.7354	0	
-0.00933862	45.7391	0	
-1.26636	45.7354	0	
-2.533	45.7334	0	
-8.96605	27.6239	0	
-4.41106	27.6241	0	
-0.0988553	27.626	0	
4.21421	27.6241	0	
8.77276	27.6239	0	
-9.86229	-23.623	0	
-4.88187	-23.6272	0	
-0.144834	-23.6303	0	
4.593	-23.6272	0	
9.57699	-23.623	0	
-0.144607	-50.2511	0	
-0.152347	-50.2576	0	
-0.158613	-50.2632	0	
-0.164026	-50.2576	0	
-0.168295	-50.2512	0	
9.59242	-23.52	0	
4.60038	-23.5242	0	
-0.14535	-23.5272	0	
-4.89023	-23.5242	0	
-9.87872	-23.52	0	
8.7688	27.765	0	
4.21154	27.7653	0	
-0.100333	27.7672	0	
-4.41137	27.7653	0	
-8.96501	27.765	0	
-2.5558	45.815	0	
-1.27911	45.817	0	
-0.0121791	45.8208	0	
1.2556	45.817	0	
2.53584	45.815	0	
-13.1043	3.73393	0	
-6.38506	3.735	0	
0.135864	3.73745	0	
6.65771	3.73513	0	
13.3806	3.73413	0	
-15.2299	-70.4221	0	
-7.4022	-70.4195	0	
0.314184	-70.4167	0	
8.03099	-70.42	0	
15.8606	-70.4229	0	
15.0522	-31.9119	0	
9.97801	3.78114	0	
7.65121	-31.911	0	
11.9219	-70.2033	0	
3.38587	3.78278	0	
0.259185	-31.91	0	
4.16707	-70.1991	0	
-3.10606	3.78275	0	
-7.13277	-31.9109	0	
-3.53056	-70.1989	0	
-9.69606	3.78102	0	
-14.5322	-31.9117	0	
-11.2842	-70.2027	0	
8.45258	31.6524	0	
1.88074	45.7343	0	
4.24676	31.6476	0	
0.618499	45.7365	0	
0.069277	31.644	0	
-0.637363	45.7365	0	
-4.10871	31.6476	0	
-1.89776	45.7343	0	
-8.31369	31.6524	0	
-3.65849	44.0647	0	
-6.66527	27.6237	0	
-1.8434	44.0587	0	
-2.24746	27.6245	0	
-0.0475098	44.054	0	
2.04955	27.6245	0	
1.74788	44.0587	0	
6.46924	27.6237	0	
3.56385	44.0647	0	
-10.3399	2.57756	0	
-7.34939	-23.6259	0	
-5.2056	2.57727	0	
-2.50604	-23.6289	0	
-0.113384	2.57762	0	
2.21616	-23.6289	0	
4.97834	2.57727	0	
7.06136	-23.6259	0	
10.1135	2.57755	0	
-5.45636	-43.1732	0	
-0.14897	-50.2553	0	
-2.7893	-43.168	0	
-0.155791	-50.2604	0	
-0.142428	-43.1627	0	
-0.161636	-50.2603	0	
2.50395	-43.168	0	
-0.166628	-50.2554	0	
5.17189	-43.1732	0	
5.19224	-43.1165	0	
7.07274	-23.5229	0	
2.514	-43.1113	0	
2.21958	-23.5259	0	
-0.142651	-43.106	0	
-2.51047	-23.5259	0	
-2.7998	-43.1113	0	
-7.36177	-23.5229	0	
-5.47716	-43.1165	0	
10.1202	2.7116	0	
6.46594	27.7648	0	
4.98117	2.7113	0	
2.04748	27.7657	0	
-0.114324	2.71164	0	
-2.24837	27.7657	0	
-5.21031	2.7113	0	
-6.66491	27.7648	0	
-10.3484	2.7116	0	
3.54978	44.1867	0	
-1.91553	45.8159	0	
1.73979	44.1807	0	
-0.645155	45.8181	0	
-0.0496758	44.176	0	
0.620621	45.8181	0	
-1.83963	44.1807	0	
1.89282	45.8159	0	
-3.64875	44.1868	0	
-8.34295	31.6769	0	
-9.72374	3.73401	0	
-4.12512	31.6721	0	
-3.11802	3.73578	0	
0.0657296	31.6685	0	
3.38951	3.73585	0	
4.25608	31.6721	0	
9.99733	3.73418	0	
8.47472	31.6769	0	
-14.5708	-32.0421	0	
-11.3151	-70.4216	0	
-7.15413	-32.0413	0	
-3.54356	-70.4177	0	
0.25497	-32.0404	0	
4.17177	-70.418	0	
7.66418	-32.0414	0	
11.9444	-70.4223	0	
15.0823	-32.0422	0	
