# vtk DataFile Version 4.1
vtk output
ASCII
DATASET UNSTRUCTURED_GRID

POINTS	149	float
0	0	0	
0	0.5	0	
0	1	0	
0	1.5	0	
0	2	0	
5	0	0	
5	0.5	0	
5	1	0	
5	1.5	0	
5	2	0	
10	0	0	
10	0.5	0	
10	1	0	
10	1.5	0	
10	2	0	
15	0	0	
15	0.5	0	
15	1	0	
15	1.5	0	
15	2	0	
20	0	0	
20	0.5	0	
20	1	0	
20	1.5	0	
20	2	0	
25	0	0	
25	0.5	0	
25	1	0	
25	1.5	0	
25	2	0	
30	0	0	
30	0.5	0	
30	1	0	
30	1.5	0	
30	2	0	
35	0	0	
35	0.5	0	
35	1	0	
35	1.5	0	
35	2	0	
40	0	0	
40	0.5	0	
40	1	0	
40	1.5	0	
40	2	0	
45	0	0	
45	0.5	0	
45	1	0	
45	1.5	0	
45	2	0	
50	0	0	
50	0.5	0	
50	1	0	
50	1.5	0	
50	2	0	
2.5	0	0	
5	0.25	0	
2.5	0.5	0	
0	0.25	0	
5	0.75	0	
2.5	1	0	
0	0.75	0	
5	1.25	0	
2.5	1.5	0	
0	1.25	0	
5	1.75	0	
2.5	2	0	
0	1.75	0	
7.5	0	0	
10	0.25	0	
7.5	0.5	0	
10	0.75	0	
7.5	1	0	
10	1.25	0	
7.5	1.5	0	
10	1.75	0	
7.5	2	0	
12.5	0	0	
15	0.25	0	
12.5	0.5	0	
15	0.75	0	
12.5	1	0	
15	1.25	0	
12.5	1.5	0	
15	1.75	0	
12.5	2	0	
17.5	0	0	
20	0.25	0	
17.5	0.5	0	
20	0.75	0	
17.5	1	0	
20	1.25	0	
17.5	1.5	0	
20	1.75	0	
17.5	2	0	
22.5	0	0	
25	0.25	0	
22.5	0.5	0	
25	0.75	0	
22.5	1	0	
25	1.25	0	
22.5	1.5	0	
25	1.75	0	
22.5	2	0	
27.5	0	0	
30	0.25	0	
27.5	0.5	0	
30	0.75	0	
27.5	1	0	
30	1.25	0	
27.5	1.5	0	
30	1.75	0	
27.5	2	0	
32.5	0	0	
35	0.25	0	
32.5	0.5	0	
35	0.75	0	
32.5	1	0	
35	1.25	0	
32.5	1.5	0	
35	1.75	0	
32.5	2	0	
37.5	0	0	
40	0.25	0	
37.5	0.5	0	
40	0.75	0	
37.5	1	0	
40	1.25	0	
37.5	1.5	0	
40	1.75	0	
37.5	2	0	
42.5	0	0	
45	0.25	0	
42.5	0.5	0	
45	0.75	0	
42.5	1	0	
45	1.25	0	
42.5	1.5	0	
45	1.75	0	
42.5	2	0	
47.5	0	0	
50	0.25	0	
47.5	0.5	0	
50	0.75	0	
47.5	1	0	
50	1.25	0	
47.5	1.5	0	
50	1.75	0	
47.5	2	0	

CELLS 40	360
8	0	5	6	1	55	56	57	58	
8	1	6	7	2	57	59	60	61	
8	2	7	8	3	60	62	63	64	
8	3	8	9	4	63	65	66	67	
8	5	10	11	6	68	69	70	56	
8	6	11	12	7	70	71	72	59	
8	7	12	13	8	72	73	74	62	
8	8	13	14	9	74	75	76	65	
8	10	15	16	11	77	78	79	69	
8	11	16	17	12	79	80	81	71	
8	12	17	18	13	81	82	83	73	
8	13	18	19	14	83	84	85	75	
8	15	20	21	16	86	87	88	78	
8	16	21	22	17	88	89	90	80	
8	17	22	23	18	90	91	92	82	
8	18	23	24	19	92	93	94	84	
8	20	25	26	21	95	96	97	87	
8	21	26	27	22	97	98	99	89	
8	22	27	28	23	99	100	101	91	
8	23	28	29	24	101	102	103	93	
8	25	30	31	26	104	105	106	96	
8	26	31	32	27	106	107	108	98	
8	27	32	33	28	108	109	110	100	
8	28	33	34	29	110	111	112	102	
8	30	35	36	31	113	114	115	105	
8	31	36	37	32	115	116	117	107	
8	32	37	38	33	117	118	119	109	
8	33	38	39	34	119	120	121	111	
8	35	40	41	36	122	123	124	114	
8	36	41	42	37	124	125	126	116	
8	37	42	43	38	126	127	128	118	
8	38	43	44	39	128	129	130	120	
8	40	45	46	41	131	132	133	123	
8	41	46	47	42	133	134	135	125	
8	42	47	48	43	135	136	137	127	
8	43	48	49	44	137	138	139	129	
8	45	50	51	46	140	141	142	132	
8	46	51	52	47	142	143	144	134	
8	47	52	53	48	144	145	146	136	
8	48	53	54	49	146	147	148	138	

CELL_TYPES	40
23
23
23
23
23
23
23
23
23
23
23
23
23
23
23
23
23
23
23
23
23
23
23
23
23
23
23
23
23
23
23
23
23
23
23
23
23
23
23
23

POINT_DATA	149
VECTORS u float
-17.1867	-162.568	0	
-39.4539	-162.016	0	
-60.6068	-161.764	0	
-81.9159	-162.103	0	
-104.612	-162.647	0	
-29.0875	-3.43235	0	
-27.2293	-3.02821	0	
-27.1756	-2.92762	0	
-27.3493	-3.03806	0	
-26.2478	-3.4336	0	
9.92735	-31.9835	0	
5.49073	-31.5837	0	
0.824789	-31.4396	0	
-3.99532	-31.5735	0	
-9.11818	-31.9739	0	
41.5962	86.7814	0	
29.3293	87.1576	0	
18.0296	87.2636	0	
6.55922	87.1462	0	
-6.4243	86.7561	0	
4.34679	87.0999	0	
16.2017	87.4727	0	
26.439	87.5899	0	
36.5609	87.4749	0	
47.6877	87.089	0	
22.5342	-6.06482	0	
25.7702	-5.68749	0	
28.6958	-5.58067	0	
31.4567	-5.69863	0	
34.0597	-6.03344	0	
40.5943	38.0058	0	
33.2642	38.3743	0	
26.9154	38.4648	0	
20.4035	38.3563	0	
12.3682	37.9962	0	
-3.50518	19.6108	0	
8.64245	19.9598	0	
19.3806	20.0515	0	
29.9731	19.9698	0	
41.3497	19.5889	0	
2.7543	-69.5254	0	
3.22342	-69.1547	0	
3.42979	-69.0204	0	
3.48454	-69.1348	0	
3.26742	-69.5049	0	
-7.6461	17.6088	0	
-16.1968	17.9362	0	
-23.3569	18.007	0	
-30.6831	17.897	0	
-39.9443	17.5219	0	
-83.0297	-57.9824	0	
-69.3036	-57.4972	0	
-56.786	-57.1943	0	
-44.3073	-57.3759	0	
-31.0112	-57.8076	0	
-18.9744	-57.3437	0	
-27.8852	-3.12525	0	
-34.9205	-57.3551	0	
-28.7579	-162.254	0	
-27.0759	-2.90846	0	
-49.5768	-57.4434	0	
-50.1428	-161.84	0	
-27.2625	-2.92414	0	
-64.2281	-57.3611	0	
-71.0532	-161.873	0	
-26.9058	-3.12022	0	
-80.4297	-57.3714	0	
-92.7431	-162.35	0	
-19.7827	-36.9453	0	
7.81768	-31.6897	0	
-16.4483	-36.8632	0	
3.22664	-31.4361	0	
-13.9227	-36.9057	0	
-1.5312	-31.4281	0	
-11.3091	-36.8619	0	
-6.48225	-31.6829	0	
-8.12962	-36.9448	0	
31.9297	8.24104	0	
35.337	87.0807	0	
19.8716	8.32697	0	
23.6653	87.2706	0	
8.1817	8.28172	0	
12.4233	87.2699	0	
-3.416	8.33311	0	
0.376814	87.0584	0	
-15.6355	8.25593	0	
20.5784	109.275	0	
10.5799	87.392	0	
20.6753	109.275	0	
21.4479	87.5959	0	
20.5632	109.167	0	
31.4849	87.5929	0	
20.5431	109.277	0	
41.9958	87.3895	0	
20.4844	109.282	0	
7.13612	20.2268	0	
24.2516	-5.77445	0	
16.6768	20.3127	0	
27.2889	-5.56286	0	
25.7797	20.2702	0	
30.1418	-5.56954	0	
34.9751	20.3167	0	
32.8464	-5.76453	0	
44.3505	20.2275	0	
34.7477	-7.0753	0	
36.8183	38.2979	0	
30.2833	-6.98921	0	
30.0845	38.4825	0	
25.985	-7.04368	0	
23.78	38.4753	0	
21.7814	-6.99888	0	
16.6753	38.2852	0	
17.1556	-7.1003	0	
17.7302	45.0984	0	
2.86604	19.8934	0	
19.6337	45.1022	0	
14.1369	20.0705	0	
21.4263	44.9989	0	
24.6815	20.0686	0	
23.3156	45.1081	0	
35.5434	19.8917	0	
25.0745	45.0991	0	
-7.73514	-48.6053	0	
3.06294	-69.2427	0	
1.51056	-48.5194	0	
3.37739	-69.0122	0	
10.168	-48.5737	0	
3.51851	-68.995	0	
18.9096	-48.5262	0	
3.48546	-69.2239	0	
27.9939	-48.6107	0	
6.84117	-48.6517	0	
-12.0291	17.881	0	
-2.17213	-48.5532	0	
-19.7713	18.0333	0	
-10.6561	-48.5962	0	
-26.8904	18.0095	0	
-19.0436	-48.5601	0	
-35.0352	17.8179	0	
-28.1984	-48.649	0	
-59.8424	3.62032	0	
-75.6689	-57.7076	0	
-52.0021	3.64931	0	
-62.8588	-57.2973	0	
-45.6811	3.57739	0	
-50.662	-57.2266	0	
-39.39	3.67125	0	
-38.0795	-57.5565	0	
-31.8264	3.661	0	
