# vtk DataFile Version 4.1
vtk output
ASCII
DATASET UNSTRUCTURED_GRID

POINTS	149	float
0	0	0	
0	0.5	0	
0	1	0	
0	1.5	0	
0	2	0	
5	0	0	
5	0.5	0	
5	1	0	
5	1.5	0	
5	2	0	
10	0	0	
10	0.5	0	
10	1	0	
10	1.5	0	
10	2	0	
15	0	0	
15	0.5	0	
15	1	0	
15	1.5	0	
15	2	0	
20	0	0	
20	0.5	0	
20	1	0	
20	1.5	0	
20	2	0	
25	0	0	
25	0.5	0	
25	1	0	
25	1.5	0	
25	2	0	
30	0	0	
30	0.5	0	
30	1	0	
30	1.5	0	
30	2	0	
35	0	0	
35	0.5	0	
35	1	0	
35	1.5	0	
35	2	0	
40	0	0	
40	0.5	0	
40	1	0	
40	1.5	0	
40	2	0	
45	0	0	
45	0.5	0	
45	1	0	
45	1.5	0	
45	2	0	
50	0	0	
50	0.5	0	
50	1	0	
50	1.5	0	
50	2	0	
2.5	0	0	
5	0.25	0	
2.5	0.5	0	
0	0.25	0	
5	0.75	0	
2.5	1	0	
0	0.75	0	
5	1.25	0	
2.5	1.5	0	
0	1.25	0	
5	1.75	0	
2.5	2	0	
0	1.75	0	
7.5	0	0	
10	0.25	0	
7.5	0.5	0	
10	0.75	0	
7.5	1	0	
10	1.25	0	
7.5	1.5	0	
10	1.75	0	
7.5	2	0	
12.5	0	0	
15	0.25	0	
12.5	0.5	0	
15	0.75	0	
12.5	1	0	
15	1.25	0	
12.5	1.5	0	
15	1.75	0	
12.5	2	0	
17.5	0	0	
20	0.25	0	
17.5	0.5	0	
20	0.75	0	
17.5	1	0	
20	1.25	0	
17.5	1.5	0	
20	1.75	0	
17.5	2	0	
22.5	0	0	
25	0.25	0	
22.5	0.5	0	
25	0.75	0	
22.5	1	0	
25	1.25	0	
22.5	1.5	0	
25	1.75	0	
22.5	2	0	
27.5	0	0	
30	0.25	0	
27.5	0.5	0	
30	0.75	0	
27.5	1	0	
30	1.25	0	
27.5	1.5	0	
30	1.75	0	
27.5	2	0	
32.5	0	0	
35	0.25	0	
32.5	0.5	0	
35	0.75	0	
32.5	1	0	
35	1.25	0	
32.5	1.5	0	
35	1.75	0	
32.5	2	0	
37.5	0	0	
40	0.25	0	
37.5	0.5	0	
40	0.75	0	
37.5	1	0	
40	1.25	0	
37.5	1.5	0	
40	1.75	0	
37.5	2	0	
42.5	0	0	
45	0.25	0	
42.5	0.5	0	
45	0.75	0	
42.5	1	0	
45	1.25	0	
42.5	1.5	0	
45	1.75	0	
42.5	2	0	
47.5	0	0	
50	0.25	0	
47.5	0.5	0	
50	0.75	0	
47.5	1	0	
50	1.25	0	
47.5	1.5	0	
50	1.75	0	
47.5	2	0	

CELLS 40	360
8	0	5	6	1	55	56	57	58	
8	1	6	7	2	57	59	60	61	
8	2	7	8	3	60	62	63	64	
8	3	8	9	4	63	65	66	67	
8	5	10	11	6	68	69	70	56	
8	6	11	12	7	70	71	72	59	
8	7	12	13	8	72	73	74	62	
8	8	13	14	9	74	75	76	65	
8	10	15	16	11	77	78	79	69	
8	11	16	17	12	79	80	81	71	
8	12	17	18	13	81	82	83	73	
8	13	18	19	14	83	84	85	75	
8	15	20	21	16	86	87	88	78	
8	16	21	22	17	88	89	90	80	
8	17	22	23	18	90	91	92	82	
8	18	23	24	19	92	93	94	84	
8	20	25	26	21	95	96	97	87	
8	21	26	27	22	97	98	99	89	
8	22	27	28	23	99	100	101	91	
8	23	28	29	24	101	102	103	93	
8	25	30	31	26	104	105	106	96	
8	26	31	32	27	106	107	108	98	
8	27	32	33	28	108	109	110	100	
8	28	33	34	29	110	111	112	102	
8	30	35	36	31	113	114	115	105	
8	31	36	37	32	115	116	117	107	
8	32	37	38	33	117	118	119	109	
8	33	38	39	34	119	120	121	111	
8	35	40	41	36	122	123	124	114	
8	36	41	42	37	124	125	126	116	
8	37	42	43	38	126	127	128	118	
8	38	43	44	39	128	129	130	120	
8	40	45	46	41	131	132	133	123	
8	41	46	47	42	133	134	135	125	
8	42	47	48	43	135	136	137	127	
8	43	48	49	44	137	138	139	129	
8	45	50	51	46	140	141	142	132	
8	46	51	52	47	142	143	144	134	
8	47	52	53	48	144	145	146	136	
8	48	53	54	49	146	147	148	138	

CELL_TYPES	40
23
23
23
23
23
23
23
23
23
23
23
23
23
23
23
23
23
23
23
23
23
23
23
23
23
23
23
23
23
23
23
23
23
23
23
23
23
23
23
23

POINT_DATA	149
VECTORS u float
19.9473	-88.6765	0	
2.18988	-88.5333	0	
-14.7394	-88.444	0	
-31.6869	-88.5515	0	
-49.5153	-88.7057	0	
2.6254	46.2859	0	
-2.38031	46.3757	0	
-7.40573	46.4137	0	
-12.4665	46.3798	0	
-17.6066	46.2907	0	
-17.5469	10.4773	0	
-8.42939	10.5558	0	
-0.303093	10.5826	0	
7.79115	10.556	0	
16.7773	10.4773	0	
4.49406	-41.188	0	
4.56094	-41.1242	0	
4.64924	-41.1132	0	
4.70607	-41.1244	0	
4.64233	-41.1884	0	
20.5023	0.277556	0	
13.7748	0.34947	0	
7.56709	0.370247	0	
1.32813	0.349544	0	
-5.52999	0.27762	0	
8.38033	39.4627	0	
8.47987	39.5425	0	
8.52924	39.5719	0	
8.547	39.5422	0	
8.51651	39.4627	0	
-5.61562	-0.310983	0	
1.28784	-0.23917	0	
7.57129	-0.218504	0	
13.8232	-0.239052	0	
20.5962	-0.310802	0	
4.6701	-41.9845	0	
4.72532	-41.9208	0	
4.6606	-41.9099	0	
4.56441	-41.9206	0	
4.48855	-41.9845	0	
16.9096	10.0258	0	
7.86696	10.1042	0	
-0.283049	10.1306	0	
-8.46515	10.104	0	
-17.6391	10.0257	0	
-17.4028	46.5571	0	
-12.3517	46.6457	0	
-7.3787	46.6794	0	
-2.44042	46.6414	0	
2.4767	46.5519	0	
-49.2869	-87.4738	0	
-31.5599	-87.3199	0	
-14.7124	-87.2126	0	
2.11764	-87.3016	0	
19.7737	-87.4439	0	
14.4186	-6.53791	0	
0.125347	46.3548	0	
0.84894	-6.54897	0	
10.9293	-88.6011	0	
-4.88408	46.4039	0	
-12.3483	-6.57834	0	
-6.31825	-88.4749	0	
-9.91924	46.4061	0	
-25.5489	-6.55234	0	
-23.1557	-88.4841	0	
-15.0067	46.3597	0	
-39.174	-6.5427	0	
-40.4454	-88.6262	0	
-11.2291	44.3254	0	
-12.8415	10.5358	0	
-7.51361	44.3132	0	
-4.31339	10.5835	0	
-4.05574	44.281	0	
3.71368	10.5835	0	
-0.578999	44.3132	0	
12.1738	10.5358	0	
3.10507	44.3253	0	
-8.3439	-28.8027	0	
4.51956	-41.1373	0	
-3.14345	-28.7692	0	
4.60866	-41.104	0	
1.95397	-28.7641	0	
4.6974	-41.1041	0	
7.06976	-28.7691	0	
4.71737	-41.1376	0	
12.2379	-28.8025	0	
14.1432	-30.8046	0	
17.092	0.334067	0	
9.97018	-30.783	0	
10.6615	0.372772	0	
5.87607	-30.7866	0	
4.48011	0.372785	0	
1.80025	-30.783	0	
-2.01896	0.334166	0	
-2.40513	-30.8045	0	
15.6181	26.8151	0	
8.44789	39.5242	0	
11.6912	26.8142	0	
8.51614	39.5692	0	
7.81002	26.7906	0	
8.54972	39.569	0	
3.94714	26.8142	0	
8.54938	39.524	0	
-0.0121207	26.8151	0	
-0.127813	26.4897	0	
-2.08175	-0.254495	0	
3.89037	26.4888	0	
4.46216	-0.215945	0	
7.81194	26.4652	0	
10.6878	-0.215856	0	
11.7518	26.4888	0	
17.163	-0.254333	0	
15.7376	26.4896	0	
-2.43924	-31.5662	0	
4.74079	-41.9339	0	
1.78711	-31.5446	0	
4.71267	-41.9006	0	
5.88344	-31.5482	0	
4.6162	-41.9006	0	
9.99814	-31.5446	0	
4.5186	-41.9338	0	
14.1923	-31.5662	0	
12.3225	-29.4851	0	
12.2778	10.0842	0	
7.11974	-29.4517	0	
3.76158	10.1316	0	
1.96967	-29.4466	0	
-4.32129	10.1317	0	
-3.16207	-29.4517	0	
-12.9055	10.0841	0	
-8.39708	-29.4852	0	
3.27246	44.1922	0	
-14.8475	46.6258	0	
-0.483219	44.1802	0	
-9.84832	46.6719	0	
-4.0318	44.148	0	
-4.90058	46.6695	0	
-7.56149	44.1801	0	
0.0210334	46.6207	0	
-11.3485	44.1923	0	
-38.9536	-5.80833	0	
-40.2679	-87.3944	0	
-25.4251	-5.81787	0	
-23.0789	-87.2528	0	
-12.3207	-5.8438	0	
-6.3409	-87.2433	0	
0.779937	-5.8144	0	
10.8065	-87.369	0	
14.2529	-5.8035	0	
