# vtk DataFile Version 4.1
vtk output
ASCII
DATASET UNSTRUCTURED_GRID

POINTS	149	float
0	0	0	
0	0.5	0	
0	1	0	
0	1.5	0	
0	2	0	
5	0	0	
5	0.5	0	
5	1	0	
5	1.5	0	
5	2	0	
10	0	0	
10	0.5	0	
10	1	0	
10	1.5	0	
10	2	0	
15	0	0	
15	0.5	0	
15	1	0	
15	1.5	0	
15	2	0	
20	0	0	
20	0.5	0	
20	1	0	
20	1.5	0	
20	2	0	
25	0	0	
25	0.5	0	
25	1	0	
25	1.5	0	
25	2	0	
30	0	0	
30	0.5	0	
30	1	0	
30	1.5	0	
30	2	0	
35	0	0	
35	0.5	0	
35	1	0	
35	1.5	0	
35	2	0	
40	0	0	
40	0.5	0	
40	1	0	
40	1.5	0	
40	2	0	
45	0	0	
45	0.5	0	
45	1	0	
45	1.5	0	
45	2	0	
50	0	0	
50	0.5	0	
50	1	0	
50	1.5	0	
50	2	0	
2.5	0	0	
5	0.25	0	
2.5	0.5	0	
0	0.25	0	
5	0.75	0	
2.5	1	0	
0	0.75	0	
5	1.25	0	
2.5	1.5	0	
0	1.25	0	
5	1.75	0	
2.5	2	0	
0	1.75	0	
7.5	0	0	
10	0.25	0	
7.5	0.5	0	
10	0.75	0	
7.5	1	0	
10	1.25	0	
7.5	1.5	0	
10	1.75	0	
7.5	2	0	
12.5	0	0	
15	0.25	0	
12.5	0.5	0	
15	0.75	0	
12.5	1	0	
15	1.25	0	
12.5	1.5	0	
15	1.75	0	
12.5	2	0	
17.5	0	0	
20	0.25	0	
17.5	0.5	0	
20	0.75	0	
17.5	1	0	
20	1.25	0	
17.5	1.5	0	
20	1.75	0	
17.5	2	0	
22.5	0	0	
25	0.25	0	
22.5	0.5	0	
25	0.75	0	
22.5	1	0	
25	1.25	0	
22.5	1.5	0	
25	1.75	0	
22.5	2	0	
27.5	0	0	
30	0.25	0	
27.5	0.5	0	
30	0.75	0	
27.5	1	0	
30	1.25	0	
27.5	1.5	0	
30	1.75	0	
27.5	2	0	
32.5	0	0	
35	0.25	0	
32.5	0.5	0	
35	0.75	0	
32.5	1	0	
35	1.25	0	
32.5	1.5	0	
35	1.75	0	
32.5	2	0	
37.5	0	0	
40	0.25	0	
37.5	0.5	0	
40	0.75	0	
37.5	1	0	
40	1.25	0	
37.5	1.5	0	
40	1.75	0	
37.5	2	0	
42.5	0	0	
45	0.25	0	
42.5	0.5	0	
45	0.75	0	
42.5	1	0	
45	1.25	0	
42.5	1.5	0	
45	1.75	0	
42.5	2	0	
47.5	0	0	
50	0.25	0	
47.5	0.5	0	
50	0.75	0	
47.5	1	0	
50	1.25	0	
47.5	1.5	0	
50	1.75	0	
47.5	2	0	

CELLS 40	360
8	0	5	6	1	55	56	57	58	
8	1	6	7	2	57	59	60	61	
8	2	7	8	3	60	62	63	64	
8	3	8	9	4	63	65	66	67	
8	5	10	11	6	68	69	70	56	
8	6	11	12	7	70	71	72	59	
8	7	12	13	8	72	73	74	62	
8	8	13	14	9	74	75	76	65	
8	10	15	16	11	77	78	79	69	
8	11	16	17	12	79	80	81	71	
8	12	17	18	13	81	82	83	73	
8	13	18	19	14	83	84	85	75	
8	15	20	21	16	86	87	88	78	
8	16	21	22	17	88	89	90	80	
8	17	22	23	18	90	91	92	82	
8	18	23	24	19	92	93	94	84	
8	20	25	26	21	95	96	97	87	
8	21	26	27	22	97	98	99	89	
8	22	27	28	23	99	100	101	91	
8	23	28	29	24	101	102	103	93	
8	25	30	31	26	104	105	106	96	
8	26	31	32	27	106	107	108	98	
8	27	32	33	28	108	109	110	100	
8	28	33	34	29	110	111	112	102	
8	30	35	36	31	113	114	115	105	
8	31	36	37	32	115	116	117	107	
8	32	37	38	33	117	118	119	109	
8	33	38	39	34	119	120	121	111	
8	35	40	41	36	122	123	124	114	
8	36	41	42	37	124	125	126	116	
8	37	42	43	38	126	127	128	118	
8	38	43	44	39	128	129	130	120	
8	40	45	46	41	131	132	133	123	
8	41	46	47	42	133	134	135	125	
8	42	47	48	43	135	136	137	127	
8	43	48	49	44	137	138	139	129	
8	45	50	51	46	140	141	142	132	
8	46	51	52	47	142	143	144	134	
8	47	52	53	48	144	145	146	136	
8	48	53	54	49	146	147	148	138	

CELL_TYPES	40
23
23
23
23
23
23
23
23
23
23
23
23
23
23
23
23
23
23
23
23
23
23
23
23
23
23
23
23
23
23
23
23
23
23
23
23
23
23
23
23

POINT_DATA	149
VECTORS u float
-37.8714	-88.6097	0	
-39.7839	-88.6094	0	
-41.6957	-88.6092	0	
-43.6077	-88.6094	0	
-45.5204	-88.6098	0	
-37.8784	-69.5236	0	
-39.7761	-69.5233	0	
-41.6748	-69.5232	0	
-43.5738	-69.5233	0	
-45.4719	-69.5236	0	
-37.852	-50.5491	0	
-39.7545	-50.5488	0	
-41.6573	-50.5487	0	
-43.5601	-50.5488	0	
-45.4631	-50.5491	0	
-37.8283	-31.4679	0	
-39.7376	-31.4677	0	
-41.6464	-31.4676	0	
-43.5552	-31.4677	0	
-45.465	-31.4679	0	
-37.8464	-12.4389	0	
-39.7433	-12.4387	0	
-41.6411	-12.4386	0	
-43.539	-12.4387	0	
-45.4363	-12.4389	0	
-37.8291	6.56006	0	
-39.7344	6.56029	0	
-41.6398	6.56036	0	
-43.5453	6.56028	0	
-45.4509	6.56008	0	
-37.8119	25.6752	0	
-39.7266	25.6754	0	
-41.6407	25.6755	0	
-43.5549	25.6754	0	
-45.4701	25.6752	0	
-37.8347	44.7771	0	
-39.7396	44.7773	0	
-41.6453	44.7774	0	
-43.5511	44.7773	0	
-45.4564	44.7771	0	
-37.828	63.8532	0	
-39.7416	63.8535	0	
-41.6552	63.8536	0	
-43.5689	63.8535	0	
-45.4829	63.8533	0	
-37.8328	83.0496	0	
-39.7527	83.0498	0	
-41.6718	83.0498	0	
-43.5909	83.0497	0	
-45.5113	83.0495	0	
-37.8792	102.15	0	
-39.7856	102.151	0	
-41.6927	102.151	0	
-43.5998	102.151	0	
-45.5064	102.151	0	
-37.8724	-79.0508	0	
-38.8271	-69.5234	0	
-39.781	-79.0508	0	
-38.8279	-88.6095	0	
-40.7254	-69.5232	0	
-41.6889	-79.0509	0	
-40.7399	-88.6092	0	
-42.6243	-69.5232	0	
-43.5967	-79.0508	0	
-42.6516	-88.6093	0	
-44.5229	-69.5234	0	
-45.5055	-79.0509	0	
-44.5637	-88.6096	0	
-37.8717	-60.0496	0	
-38.8032	-50.5489	0	
-39.7689	-60.0496	0	
-40.7059	-50.5487	0	
-41.6665	-60.0496	0	
-42.6087	-50.5487	0	
-43.5641	-60.0496	0	
-44.5116	-50.5489	0	
-45.4614	-60.0496	0	
-37.8364	-41.0228	0	
-38.783	-31.4677	0	
-39.7446	-41.0228	0	
-40.692	-31.4676	0	
-41.6526	-41.0228	0	
-42.6007	-31.4676	0	
-43.5605	-41.0228	0	
-44.5099	-31.4677	0	
-45.4689	-41.0228	0	
-37.839	-21.9427	0	
-38.7947	-12.4388	0	
-39.7418	-21.9427	0	
-40.6921	-12.4386	0	
-41.6448	-21.9428	0	
-42.5901	-12.4386	0	
-43.5477	-21.9427	0	
-44.4877	-12.4388	0	
-45.4506	-21.9427	0	
-37.8418	-2.95591	0	
-38.7817	6.56024	0	
-39.7415	-2.95585	0	
-40.687	6.56037	0	
-41.6416	-2.95588	0	
-42.5925	6.56037	0	
-43.5415	-2.95585	0	
-44.498	6.56025	0	
-45.4414	-2.95591	0	
-37.8184	16.0995	0	
-38.7693	25.6754	0	
-39.73	16.0996	0	
-40.6837	25.6755	0	
-41.6414	16.0995	0	
-42.5978	25.6755	0	
-43.5528	16.0996	0	
-44.5124	25.6754	0	
-45.4644	16.0995	0	
-37.8237	35.2334	0	
-38.787	44.7773	0	
-39.7339	35.2334	0	
-40.6924	44.7774	0	
-41.6441	35.2333	0	
-42.5982	44.7774	0	
-43.5543	35.2334	0	
-44.5038	44.7773	0	
-45.4645	35.2334	0	
-37.8358	54.2987	0	
-38.7848	63.8534	0	
-39.7432	54.2988	0	
-40.6983	63.8536	0	
-41.651	54.2987	0	
-42.612	63.8536	0	
-43.5587	54.2988	0	
-44.5258	63.8534	0	
-45.4662	54.2987	0	
-37.8246	73.4362	0	
-38.7928	83.0497	0	
-39.7444	73.4363	0	
-40.7122	83.0498	0	
-41.6639	73.4362	0	
-42.6313	83.0498	0	
-43.5833	73.4363	0	
-44.5509	83.0497	0	
-45.5032	73.4362	0	
-37.865	92.6145	0	
-38.8321	102.151	0	
-39.7749	92.6145	0	
-40.739	102.151	0	
-41.6857	92.6144	0	
-42.6463	102.151	0	
-43.5966	92.6145	0	
-44.5534	102.151	0	
-45.5067	92.6145	0	
