# vtk DataFile Version 4.1
vtk output
ASCII
DATASET UNSTRUCTURED_GRID

POINTS	149	float
0	0	0	
0	0.5	0	
0	1	0	
0	1.5	0	
0	2	0	
5	0	0	
5	0.5	0	
5	1	0	
5	1.5	0	
5	2	0	
10	0	0	
10	0.5	0	
10	1	0	
10	1.5	0	
10	2	0	
15	0	0	
15	0.5	0	
15	1	0	
15	1.5	0	
15	2	0	
20	0	0	
20	0.5	0	
20	1	0	
20	1.5	0	
20	2	0	
25	0	0	
25	0.5	0	
25	1	0	
25	1.5	0	
25	2	0	
30	0	0	
30	0.5	0	
30	1	0	
30	1.5	0	
30	2	0	
35	0	0	
35	0.5	0	
35	1	0	
35	1.5	0	
35	2	0	
40	0	0	
40	0.5	0	
40	1	0	
40	1.5	0	
40	2	0	
45	0	0	
45	0.5	0	
45	1	0	
45	1.5	0	
45	2	0	
50	0	0	
50	0.5	0	
50	1	0	
50	1.5	0	
50	2	0	
2.5	0	0	
5	0.25	0	
2.5	0.5	0	
0	0.25	0	
5	0.75	0	
2.5	1	0	
0	0.75	0	
5	1.25	0	
2.5	1.5	0	
0	1.25	0	
5	1.75	0	
2.5	2	0	
0	1.75	0	
7.5	0	0	
10	0.25	0	
7.5	0.5	0	
10	0.75	0	
7.5	1	0	
10	1.25	0	
7.5	1.5	0	
10	1.75	0	
7.5	2	0	
12.5	0	0	
15	0.25	0	
12.5	0.5	0	
15	0.75	0	
12.5	1	0	
15	1.25	0	
12.5	1.5	0	
15	1.75	0	
12.5	2	0	
17.5	0	0	
20	0.25	0	
17.5	0.5	0	
20	0.75	0	
17.5	1	0	
20	1.25	0	
17.5	1.5	0	
20	1.75	0	
17.5	2	0	
22.5	0	0	
25	0.25	0	
22.5	0.5	0	
25	0.75	0	
22.5	1	0	
25	1.25	0	
22.5	1.5	0	
25	1.75	0	
22.5	2	0	
27.5	0	0	
30	0.25	0	
27.5	0.5	0	
30	0.75	0	
27.5	1	0	
30	1.25	0	
27.5	1.5	0	
30	1.75	0	
27.5	2	0	
32.5	0	0	
35	0.25	0	
32.5	0.5	0	
35	0.75	0	
32.5	1	0	
35	1.25	0	
32.5	1.5	0	
35	1.75	0	
32.5	2	0	
37.5	0	0	
40	0.25	0	
37.5	0.5	0	
40	0.75	0	
37.5	1	0	
40	1.25	0	
37.5	1.5	0	
40	1.75	0	
37.5	2	0	
42.5	0	0	
45	0.25	0	
42.5	0.5	0	
45	0.75	0	
42.5	1	0	
45	1.25	0	
42.5	1.5	0	
45	1.75	0	
42.5	2	0	
47.5	0	0	
50	0.25	0	
47.5	0.5	0	
50	0.75	0	
47.5	1	0	
50	1.25	0	
47.5	1.5	0	
50	1.75	0	
47.5	2	0	

CELLS 40	360
8	0	5	6	1	55	56	57	58	
8	1	6	7	2	57	59	60	61	
8	2	7	8	3	60	62	63	64	
8	3	8	9	4	63	65	66	67	
8	5	10	11	6	68	69	70	56	
8	6	11	12	7	70	71	72	59	
8	7	12	13	8	72	73	74	62	
8	8	13	14	9	74	75	76	65	
8	10	15	16	11	77	78	79	69	
8	11	16	17	12	79	80	81	71	
8	12	17	18	13	81	82	83	73	
8	13	18	19	14	83	84	85	75	
8	15	20	21	16	86	87	88	78	
8	16	21	22	17	88	89	90	80	
8	17	22	23	18	90	91	92	82	
8	18	23	24	19	92	93	94	84	
8	20	25	26	21	95	96	97	87	
8	21	26	27	22	97	98	99	89	
8	22	27	28	23	99	100	101	91	
8	23	28	29	24	101	102	103	93	
8	25	30	31	26	104	105	106	96	
8	26	31	32	27	106	107	108	98	
8	27	32	33	28	108	109	110	100	
8	28	33	34	29	110	111	112	102	
8	30	35	36	31	113	114	115	105	
8	31	36	37	32	115	116	117	107	
8	32	37	38	33	117	118	119	109	
8	33	38	39	34	119	120	121	111	
8	35	40	41	36	122	123	124	114	
8	36	41	42	37	124	125	126	116	
8	37	42	43	38	126	127	128	118	
8	38	43	44	39	128	129	130	120	
8	40	45	46	41	131	132	133	123	
8	41	46	47	42	133	134	135	125	
8	42	47	48	43	135	136	137	127	
8	43	48	49	44	137	138	139	129	
8	45	50	51	46	140	141	142	132	
8	46	51	52	47	142	143	144	134	
8	47	52	53	48	144	145	146	136	
8	48	53	54	49	146	147	148	138	

CELL_TYPES	40
23
23
23
23
23
23
23
23
23
23
23
23
23
23
23
23
23
23
23
23
23
23
23
23
23
23
23
23
23
23
23
23
23
23
23
23
23
23
23
23

POINT_DATA	149
VECTORS u float
0.337745	0.665556	0	
-0.000495906	0.000180128	0	
-0.00108429	0.000275896	0	
-0.00174887	0.000310664	0	
-0.00252536	0.000313628	0	
-0.000510495	0.00538108	0	
-0.000496249	0.00539285	0	
-0.000553982	0.00538404	0	
-0.000623927	0.00537106	0	
-0.000675577	0.00536485	0	
-0.00105558	0.00277013	0	
-0.000661612	0.00277116	0	
-0.000301124	0.00276804	0	
6.01518e-005	0.00276493	0	
0.000447956	0.00276352	0	
-0.000308383	0.000157712	0	
-0.000190053	0.000157519	0	
-6.8993e-005	0.000156656	0	
5.2581e-005	0.000156552	0	
0.00017081	0.000156658	0	
0.000192161	-8.8298e-005	0	
0.000156665	-8.82866e-005	0	
0.000131244	-8.83564e-005	0	
0.000105941	-8.83899e-005	0	
7.05231e-005	-8.83977e-005	0	
0.000186522	-0.000123208	0	
0.000244306	-0.000123048	0	
0.000299617	-0.00012289	0	
0.000354936	-0.000123065	0	
0.000412737	-0.000123218	0	
0.000253557	-0.00103338	0	
0.000351852	-0.00103343	0	
0.000436592	-0.00103356	0	
0.000521292	-0.00103352	0	
0.000619639	-0.00103346	0	
0.000916221	-0.000790291	0	
0.000730284	-0.000790421	0	
0.000542683	-0.000791091	0	
0.00035506	-0.000790921	0	
0.000169862	-0.000790653	0	
0.00173033	0.00310972	0	
0.00115344	0.0031123	0	
0.000616782	0.0031123	0	
8.13079e-005	0.00311124	0	
-0.000489429	0.00311047	0	
0.000834183	0.00739918	0	
0.000713637	0.00742008	0	
0.000656224	0.00743107	0	
0.000609634	0.00743108	0	
0.000521721	0.00742848	0	
-0.00198328	0.665556	0	
-0.000531936	0.000193871	0	
0.000709065	0.000329598	0	
0.00190657	0.000390217	0	
0.00321995	0.000399082	0	
0.000310851	0.00386497	0	
-0.000498726	0.00538923	0	
-0.000270541	0.0038289	0	
-0.000251051	9.73606e-005	0	
-0.000525666	0.00538668	0	
-0.000798705	0.00379455	0	
-0.000791633	0.00022982	0	
-0.000591432	0.00537585	0	
-0.00130077	0.00378342	0	
-0.00141047	0.000294964	0	
-0.000654332	0.00536689	0	
-0.0018105	0.00378307	0	
-0.00212369	0.000313071	0	
-0.000945891	0.00455194	0	
-0.000855776	0.00276994	0	
-0.000684436	0.00455142	0	
-0.000479839	0.00277012	0	
-0.000430364	0.00455452	0	
-0.00012115	0.00276701	0	
-0.000177068	0.00455759	0	
0.000251132	0.00276448	0	
8.96215e-005	0.00455887	0	
-0.000701451	0.00111489	0	
-0.000250174	0.000157759	0	
-0.000441332	0.00111549	0	
-0.000129978	0.000156989	0	
-0.000180921	0.0011166	0	
-7.96699e-006	0.000156505	0	
7.89675e-005	0.00111648	0	
0.00011267	0.000156497	0	
0.000339189	0.00111601	0	
-1.42966e-005	-0.000157323	0	
0.000173323	-8.83316e-005	0	
9.32224e-006	-0.000157194	0	
0.00014364	-8.82949e-005	0	
3.53176e-005	-0.000156999	0	
0.00011897	-8.83468e-005	0	
6.12007e-005	-0.000157115	0	
8.93216e-005	-8.83608e-005	0	
8.4697e-005	-0.000157243	0	
0.000212138	1.41375e-005	0	
0.000215597	-0.000123078	0	
0.000215256	1.38704e-005	0	
0.000272007	-0.00012301	0	
0.000219413	1.36474e-005	0	
0.000327202	-0.000123019	0	
0.000223553	1.38777e-005	0	
0.00038364	-0.00012313	0	
0.000226662	1.41405e-005	0	
0.000190662	-0.000524382	0	
0.000304218	-0.00103346	0	
0.000282144	-0.000524622	0	
0.000394737	-0.00103346	0	
0.000371986	-0.000524816	0	
0.000478482	-0.00103351	0	
0.000461837	-0.000524614	0	
0.000569008	-0.00103346	0	
0.000553311	-0.000524381	0	
0.000542606	-0.00126673	0	
0.000823822	-0.000790185	0	
0.000519423	-0.00126649	0	
0.000636596	-0.000790849	0	
0.000493499	-0.00126619	0	
0.000448566	-0.000791105	0	
0.000467616	-0.00126638	0	
0.000261687	-0.000790905	0	
0.000444423	-0.00126662	0	
0.00136195	0.000667628	0	
0.00143983	0.00311016	0	
0.000973158	0.000668129	0	
0.000884658	0.00311284	0	
0.000584279	0.000669012	0	
0.000350202	0.00311234	0	
0.000195417	0.000668606	0	
-0.000201203	0.00311111	0	
-0.000194199	0.000667976	0	
0.00149945	0.0058169	0	
0.000762648	0.00741245	0	
0.00106759	0.00581523	0	
0.000680386	0.0074238	0	
0.000646166	0.00581558	0	
0.000634921	0.00742924	0	
0.000223431	0.0058166	0	
0.000574192	0.00742864	0	
-0.00021417	0.00581701	0	
-0.000757945	0.00592011	0	
-0.00122964	0.000103192	0	
-2.74033e-005	0.00587277	0	
0.000100919	0.000263362	0	
0.000679774	0.00581721	0	
0.00130437	0.000361598	0	
0.00137837	0.00579276	0	
0.00254457	0.000395584	0	
0.00208607	0.00578926	0	
