# vtk DataFile Version 4.1
vtk output
ASCII
DATASET UNSTRUCTURED_GRID

POINTS	149	float
0	0	0	
0	0.5	0	
0	1	0	
0	1.5	0	
0	2	0	
5	0	0	
5	0.5	0	
5	1	0	
5	1.5	0	
5	2	0	
10	0	0	
10	0.5	0	
10	1	0	
10	1.5	0	
10	2	0	
15	0	0	
15	0.5	0	
15	1	0	
15	1.5	0	
15	2	0	
20	0	0	
20	0.5	0	
20	1	0	
20	1.5	0	
20	2	0	
25	0	0	
25	0.5	0	
25	1	0	
25	1.5	0	
25	2	0	
30	0	0	
30	0.5	0	
30	1	0	
30	1.5	0	
30	2	0	
35	0	0	
35	0.5	0	
35	1	0	
35	1.5	0	
35	2	0	
40	0	0	
40	0.5	0	
40	1	0	
40	1.5	0	
40	2	0	
45	0	0	
45	0.5	0	
45	1	0	
45	1.5	0	
45	2	0	
50	0	0	
50	0.5	0	
50	1	0	
50	1.5	0	
50	2	0	
2.5	0	0	
5	0.25	0	
2.5	0.5	0	
0	0.25	0	
5	0.75	0	
2.5	1	0	
0	0.75	0	
5	1.25	0	
2.5	1.5	0	
0	1.25	0	
5	1.75	0	
2.5	2	0	
0	1.75	0	
7.5	0	0	
10	0.25	0	
7.5	0.5	0	
10	0.75	0	
7.5	1	0	
10	1.25	0	
7.5	1.5	0	
10	1.75	0	
7.5	2	0	
12.5	0	0	
15	0.25	0	
12.5	0.5	0	
15	0.75	0	
12.5	1	0	
15	1.25	0	
12.5	1.5	0	
15	1.75	0	
12.5	2	0	
17.5	0	0	
20	0.25	0	
17.5	0.5	0	
20	0.75	0	
17.5	1	0	
20	1.25	0	
17.5	1.5	0	
20	1.75	0	
17.5	2	0	
22.5	0	0	
25	0.25	0	
22.5	0.5	0	
25	0.75	0	
22.5	1	0	
25	1.25	0	
22.5	1.5	0	
25	1.75	0	
22.5	2	0	
27.5	0	0	
30	0.25	0	
27.5	0.5	0	
30	0.75	0	
27.5	1	0	
30	1.25	0	
27.5	1.5	0	
30	1.75	0	
27.5	2	0	
32.5	0	0	
35	0.25	0	
32.5	0.5	0	
35	0.75	0	
32.5	1	0	
35	1.25	0	
32.5	1.5	0	
35	1.75	0	
32.5	2	0	
37.5	0	0	
40	0.25	0	
37.5	0.5	0	
40	0.75	0	
37.5	1	0	
40	1.25	0	
37.5	1.5	0	
40	1.75	0	
37.5	2	0	
42.5	0	0	
45	0.25	0	
42.5	0.5	0	
45	0.75	0	
42.5	1	0	
45	1.25	0	
42.5	1.5	0	
45	1.75	0	
42.5	2	0	
47.5	0	0	
50	0.25	0	
47.5	0.5	0	
50	0.75	0	
47.5	1	0	
50	1.25	0	
47.5	1.5	0	
50	1.75	0	
47.5	2	0	

CELLS 40	360
8	0	5	6	1	55	56	57	58	
8	1	6	7	2	57	59	60	61	
8	2	7	8	3	60	62	63	64	
8	3	8	9	4	63	65	66	67	
8	5	10	11	6	68	69	70	56	
8	6	11	12	7	70	71	72	59	
8	7	12	13	8	72	73	74	62	
8	8	13	14	9	74	75	76	65	
8	10	15	16	11	77	78	79	69	
8	11	16	17	12	79	80	81	71	
8	12	17	18	13	81	82	83	73	
8	13	18	19	14	83	84	85	75	
8	15	20	21	16	86	87	88	78	
8	16	21	22	17	88	89	90	80	
8	17	22	23	18	90	91	92	82	
8	18	23	24	19	92	93	94	84	
8	20	25	26	21	95	96	97	87	
8	21	26	27	22	97	98	99	89	
8	22	27	28	23	99	100	101	91	
8	23	28	29	24	101	102	103	93	
8	25	30	31	26	104	105	106	96	
8	26	31	32	27	106	107	108	98	
8	27	32	33	28	108	109	110	100	
8	28	33	34	29	110	111	112	102	
8	30	35	36	31	113	114	115	105	
8	31	36	37	32	115	116	117	107	
8	32	37	38	33	117	118	119	109	
8	33	38	39	34	119	120	121	111	
8	35	40	41	36	122	123	124	114	
8	36	41	42	37	124	125	126	116	
8	37	42	43	38	126	127	128	118	
8	38	43	44	39	128	129	130	120	
8	40	45	46	41	131	132	133	123	
8	41	46	47	42	133	134	135	125	
8	42	47	48	43	135	136	137	127	
8	43	48	49	44	137	138	139	129	
8	45	50	51	46	140	141	142	132	
8	46	51	52	47	142	143	144	134	
8	47	52	53	48	144	145	146	136	
8	48	53	54	49	146	147	148	138	

CELL_TYPES	40
23
23
23
23
23
23
23
23
23
23
23
23
23
23
23
23
23
23
23
23
23
23
23
23
23
23
23
23
23
23
23
23
23
23
23
23
23
23
23
23

POINT_DATA	149
VECTORS u float
6.63942	-71.3902	0	
3.31681	-71.3902	0	
-5.1388e-005	-71.3902	0	
-3.31692	-71.3902	0	
-6.63952	-71.3902	0	
6.53635	-38.3395	0	
3.26149	-38.3396	0	
-2.41977e-005	-38.3397	0	
-3.26154	-38.3396	0	
-6.5364	-38.3395	0	
5.90932	-6.96901	0	
2.94549	-6.96904	0	
-6.54569e-007	-6.96907	0	
-2.9455	-6.96904	0	
-5.90932	-6.96901	0	
4.53198	19.4177	0	
2.25759	19.4178	0	
1.50245e-005	19.4179	0	
-2.25756	19.4178	0	
-4.53195	19.4177	0	
2.46762	37.1302	0	
1.22888	37.1304	0	
2.22855e-005	37.1307	0	
-1.22883	37.1304	0	
-2.46758	37.1302	0	
6.67269e-006	43.378	0	
1.54806e-005	43.3782	0	
2.38939e-005	43.3785	0	
3.2171e-005	43.3782	0	
4.05032e-005	43.378	0	
-2.4676	37.1301	0	
-1.22884	37.1303	0	
2.33224e-005	37.1305	0	
1.22889	37.1303	0	
2.46764	37.1301	0	
-4.53194	19.4175	0	
-2.25756	19.4176	0	
1.7902e-005	19.4177	0	
2.25759	19.4176	0	
4.53198	19.4175	0	
-5.90929	-6.96914	0	
-2.94548	-6.96917	0	
4.87183e-006	-6.9692	0	
2.94549	-6.96917	0	
5.9093	-6.96914	0	
-6.53635	-38.3395	0	
-3.26151	-38.3395	0	
-1.61311e-005	-38.3396	0	
3.26148	-38.3395	0	
6.53631	-38.3395	0	
-6.63947	-71.39	0	
-3.31689	-71.3899	0	
-4.33323e-005	-71.3899	0	
3.3168	-71.3899	0	
6.63938	-71.39	0	
6.60917	-54.8097	0	
4.89784	-38.3396	0	
3.3044	-54.8095	0	
4.97807	-71.3902	0	
1.63038	-38.3396	0	
-4.25382e-005	-54.8094	0	
1.65836	-71.3902	0	
-1.63043	-38.3396	0	
-3.30449	-54.8095	0	
-1.65846	-71.3902	0	
-4.89789	-38.3396	0	
-6.60926	-54.8097	0	
-4.97817	-71.3902	0	
6.27243	-22.2662	0	
4.42592	-6.96903	0	
3.13527	-22.2661	0	
1.47225	-6.96905	0	
-1.30667e-005	-22.266	0	
-1.47226	-6.96905	0	
-3.1353	-22.2661	0	
-4.42592	-6.96903	0	
-6.27246	-22.2662	0	
5.2755	7.08641	0	
3.39344	19.4178	0	
2.63672	7.08638	0	
1.12836	19.4179	0	
6.20502e-006	7.08634	0	
-1.12833	19.4179	0	
-2.63671	7.08638	0	
-3.39341	19.4178	0	
-5.27549	7.08641	0	
3.54111	29.5694	0	
1.84746	37.1304	0	
1.76979	29.5692	0	
0.614188	37.1305	0	
1.72502e-005	29.5691	0	
-0.614143	37.1305	0	
-1.76976	29.5692	0	
-1.84742	37.1304	0	
-3.54107	29.5694	0	
1.24905	41.8037	0	
1.11741e-005	43.3781	0	
0.624253	41.8035	0	
1.97308e-005	43.3784	0	
2.1674e-005	41.8033	0	
2.80925e-005	43.3784	0	
-0.62421	41.8035	0	
3.64007e-005	43.3781	0	
-1.24901	41.8037	0	
-1.24904	41.8036	0	
-1.84743	37.1302	0	
-0.624224	41.8034	0	
-0.614148	37.1304	0	
2.21237e-005	41.8032	0	
0.614195	37.1304	0	
0.624269	41.8034	0	
1.84748	37.1302	0	
1.24908	41.8036	0	
-3.54108	29.5692	0	
-3.3934	19.4176	0	
-1.76976	29.569	0	
-1.12832	19.4177	0	
1.91025e-005	29.5689	0	
1.12836	19.4177	0	
1.7698	29.569	0	
3.39344	19.4176	0	
3.54112	29.5692	0	
-5.27547	7.08623	0	
-4.4259	-6.96916	0	
-2.6367	7.0862	0	
-1.47224	-6.96918	0	
1.0425e-005	7.08616	0	
1.47225	-6.96918	0	
2.63672	7.0862	0	
4.42591	-6.96916	0	
5.27549	7.08623	0	
-6.27242	-22.2663	0	
-4.89785	-38.3395	0	
-3.13527	-22.2662	0	
-1.63041	-38.3396	0	
-6.15625e-006	-22.2661	0	
1.63038	-38.3396	0	
3.13526	-22.2662	0	
4.89782	-38.3395	0	
6.2724	-22.2663	0	
-6.6092	-54.8096	0	
-4.97813	-71.39	0	
-3.30446	-54.8094	0	
-1.65844	-71.3899	0	
-3.43206e-005	-54.8093	0	
1.65835	-71.3899	0	
3.30439	-54.8094	0	
4.97804	-71.39	0	
6.60914	-54.8096	0	
