# vtk DataFile Version 4.1
vtk output
ASCII
DATASET UNSTRUCTURED_GRID

POINTS	149	float
0	0	0	
0	0.5	0	
0	1	0	
0	1.5	0	
0	2	0	
5	0	0	
5	0.5	0	
5	1	0	
5	1.5	0	
5	2	0	
10	0	0	
10	0.5	0	
10	1	0	
10	1.5	0	
10	2	0	
15	0	0	
15	0.5	0	
15	1	0	
15	1.5	0	
15	2	0	
20	0	0	
20	0.5	0	
20	1	0	
20	1.5	0	
20	2	0	
25	0	0	
25	0.5	0	
25	1	0	
25	1.5	0	
25	2	0	
30	0	0	
30	0.5	0	
30	1	0	
30	1.5	0	
30	2	0	
35	0	0	
35	0.5	0	
35	1	0	
35	1.5	0	
35	2	0	
40	0	0	
40	0.5	0	
40	1	0	
40	1.5	0	
40	2	0	
45	0	0	
45	0.5	0	
45	1	0	
45	1.5	0	
45	2	0	
50	0	0	
50	0.5	0	
50	1	0	
50	1.5	0	
50	2	0	
2.5	0	0	
5	0.25	0	
2.5	0.5	0	
0	0.25	0	
5	0.75	0	
2.5	1	0	
0	0.75	0	
5	1.25	0	
2.5	1.5	0	
0	1.25	0	
5	1.75	0	
2.5	2	0	
0	1.75	0	
7.5	0	0	
10	0.25	0	
7.5	0.5	0	
10	0.75	0	
7.5	1	0	
10	1.25	0	
7.5	1.5	0	
10	1.75	0	
7.5	2	0	
12.5	0	0	
15	0.25	0	
12.5	0.5	0	
15	0.75	0	
12.5	1	0	
15	1.25	0	
12.5	1.5	0	
15	1.75	0	
12.5	2	0	
17.5	0	0	
20	0.25	0	
17.5	0.5	0	
20	0.75	0	
17.5	1	0	
20	1.25	0	
17.5	1.5	0	
20	1.75	0	
17.5	2	0	
22.5	0	0	
25	0.25	0	
22.5	0.5	0	
25	0.75	0	
22.5	1	0	
25	1.25	0	
22.5	1.5	0	
25	1.75	0	
22.5	2	0	
27.5	0	0	
30	0.25	0	
27.5	0.5	0	
30	0.75	0	
27.5	1	0	
30	1.25	0	
27.5	1.5	0	
30	1.75	0	
27.5	2	0	
32.5	0	0	
35	0.25	0	
32.5	0.5	0	
35	0.75	0	
32.5	1	0	
35	1.25	0	
32.5	1.5	0	
35	1.75	0	
32.5	2	0	
37.5	0	0	
40	0.25	0	
37.5	0.5	0	
40	0.75	0	
37.5	1	0	
40	1.25	0	
37.5	1.5	0	
40	1.75	0	
37.5	2	0	
42.5	0	0	
45	0.25	0	
42.5	0.5	0	
45	0.75	0	
42.5	1	0	
45	1.25	0	
42.5	1.5	0	
45	1.75	0	
42.5	2	0	
47.5	0	0	
50	0.25	0	
47.5	0.5	0	
50	0.75	0	
47.5	1	0	
50	1.25	0	
47.5	1.5	0	
50	1.75	0	
47.5	2	0	

CELLS 40	360
8	0	5	6	1	55	56	57	58	
8	1	6	7	2	57	59	60	61	
8	2	7	8	3	60	62	63	64	
8	3	8	9	4	63	65	66	67	
8	5	10	11	6	68	69	70	56	
8	6	11	12	7	70	71	72	59	
8	7	12	13	8	72	73	74	62	
8	8	13	14	9	74	75	76	65	
8	10	15	16	11	77	78	79	69	
8	11	16	17	12	79	80	81	71	
8	12	17	18	13	81	82	83	73	
8	13	18	19	14	83	84	85	75	
8	15	20	21	16	86	87	88	78	
8	16	21	22	17	88	89	90	80	
8	17	22	23	18	90	91	92	82	
8	18	23	24	19	92	93	94	84	
8	20	25	26	21	95	96	97	87	
8	21	26	27	22	97	98	99	89	
8	22	27	28	23	99	100	101	91	
8	23	28	29	24	101	102	103	93	
8	25	30	31	26	104	105	106	96	
8	26	31	32	27	106	107	108	98	
8	27	32	33	28	108	109	110	100	
8	28	33	34	29	110	111	112	102	
8	30	35	36	31	113	114	115	105	
8	31	36	37	32	115	116	117	107	
8	32	37	38	33	117	118	119	109	
8	33	38	39	34	119	120	121	111	
8	35	40	41	36	122	123	124	114	
8	36	41	42	37	124	125	126	116	
8	37	42	43	38	126	127	128	118	
8	38	43	44	39	128	129	130	120	
8	40	45	46	41	131	132	133	123	
8	41	46	47	42	133	134	135	125	
8	42	47	48	43	135	136	137	127	
8	43	48	49	44	137	138	139	129	
8	45	50	51	46	140	141	142	132	
8	46	51	52	47	142	143	144	134	
8	47	52	53	48	144	145	146	136	
8	48	53	54	49	146	147	148	138	

CELL_TYPES	40
23
23
23
23
23
23
23
23
23
23
23
23
23
23
23
23
23
23
23
23
23
23
23
23
23
23
23
23
23
23
23
23
23
23
23
23
23
23
23
23

POINT_DATA	149
VECTORS u float
1.15067e-006	2.26746e-006	0	
5.3588	-0.0364648	0	
10.0517	-0.125292	0	
14.5138	-0.179607	0	
19.0639	-0.190269	0	
6.73297	-35.5031	0	
9.07483	-35.5328	0	
11.2587	-35.5808	0	
13.432	-35.6078	0	
15.6882	-35.6137	0	
15.5744	-38.8841	0	
13.876	-38.8915	0	
12.2394	-38.9019	0	
10.6063	-38.9038	0	
8.90709	-38.9026	0	
21.5323	-7.31852	0	
17.2403	-7.31982	0	
13.1136	-7.32136	0	
8.98792	-7.32099	0	
4.69748	-7.3204	0	
20.3124	32.4841	0	
17.0253	32.4857	0	
13.8628	32.4876	0	
10.7005	32.4857	0	
7.41379	32.484	0	
13.689	47.6362	0	
14.0952	47.6389	0	
14.4915	47.6418	0	
14.8877	47.6389	0	
15.2939	47.6362	0	
7.3555	25.1836	0	
11.249	25.1851	0	
15.002	25.1867	0	
18.7551	25.1851	0	
22.6485	25.1836	0	
6.86152	-18.0879	0	
11.2133	-18.0893	0	
15.397	-18.0906	0	
19.5807	-18.0894	0	
23.9319	-18.0883	0	
13.4447	-47.09	0	
14.5837	-47.0951	0	
15.6781	-47.0995	0	
16.7721	-47.0971	0	
17.9094	-47.0944	0	
21.7137	-36.8837	0	
18.7059	-36.901	0	
15.8439	-36.9139	0	
12.985	-36.9175	0	
9.98434	-36.9169	0	
23.9331	2.26746e-006	0	
19.8663	-0.0446314	0	
15.9015	-0.0772064	0	
11.9361	-0.0899094	0	
7.87414	-0.090468	0	
3.6225	-20.8665	0	
7.90392	-35.5166	0	
7.08894	-20.8581	0	
2.72596	-0.0123427	0	
10.1633	-35.5574	0	
10.6149	-20.8454	0	
7.72847	-0.0820424	0	
12.3403	-35.5944	0	
14.1599	-20.8357	0	
12.2881	-0.154269	0	
14.5527	-35.6112	0	
17.7116	-20.8344	0	
16.7771	-0.185948	0	
11.0957	-42.2798	0	
14.7217	-38.8885	0	
11.4294	-42.2719	0	
13.0576	-38.8963	0	
11.7601	-42.2614	0	
11.4254	-38.9026	0	
12.0867	-42.2601	0	
9.76213	-38.9034	0	
12.4197	-42.2623	0	
18.9967	-26.3637	0	
19.3705	-7.31908	0	
15.8357	-26.3606	0	
15.1715	-7.32061	0	
12.6937	-26.3577	0	
11.0556	-7.32117	0	
9.55059	-26.3594	0	
6.85805	-7.32075	0	
6.38802	-26.3616	0	
21.4502	13.8463	0	
18.658	32.485	0	
17.4661	13.8454	0	
15.4406	32.4865	0	
13.5039	13.8446	0	
12.2853	32.4865	0	
9.54159	13.8453	0	
9.06812	32.485	0	
5.55709	13.8463	0	
17.2169	44.6981	0	
13.8928	47.6378	0	
15.7002	44.6951	0	
14.2935	47.6402	0	
14.1921	44.6923	0	
14.6893	47.6402	0	
12.684	44.695	0	
15.0901	47.6378	0	
11.1673	44.6981	0	
10.2783	40.7906	0	
9.31469	25.1844	0	
12.5252	40.7877	0	
13.1296	25.1858	0	
14.7613	40.785	0	
16.8745	25.1858	0	
16.9974	40.7877	0	
20.6894	25.1845	0	
19.2444	40.7906	0	
6.57457	4.12802	0	
9.05284	-18.0885	0	
10.906	4.12746	0	
13.3102	-18.0899	0	
15.2138	4.12693	0	
17.4838	-18.0899	0	
19.5216	4.12743	0	
21.7408	-18.0889	0	
23.8532	4.12801	0	
9.76035	-36.6265	0	
14.0193	-47.0936	0	
12.6652	-36.6235	0	
15.1326	-47.0969	0	
15.5514	-36.6209	0	
16.2235	-47.0979	0	
18.4378	-36.6235	0	
17.3357	-47.0959	0	
21.3431	-36.6263	0	
17.808	-47.2469	0	
20.1931	-36.8898	0	
16.7851	-47.2405	0	
17.2691	-36.9077	0	
15.7754	-47.2355	0	
14.4195	-36.9159	0	
14.7663	-47.2386	0	
11.5012	-36.9179	0	
13.7457	-47.2427	0	
23.2481	-19.6796	0	
21.8951	-0.0188523	0	
19.5581	-19.6879	0	
17.8825	-0.0632481	0	
15.8868	-19.7136	0	
13.9203	-0.0858876	0	
12.217	-19.7288	0	
9.90886	-0.0913675	0	
8.53118	-19.7335	0	
