# vtk DataFile Version 4.1
vtk output
ASCII
DATASET UNSTRUCTURED_GRID

POINTS	149	float
0	0	0	
0	0.5	0	
0	1	0	
0	1.5	0	
0	2	0	
5	0	0	
5	0.5	0	
5	1	0	
5	1.5	0	
5	2	0	
10	0	0	
10	0.5	0	
10	1	0	
10	1.5	0	
10	2	0	
15	0	0	
15	0.5	0	
15	1	0	
15	1.5	0	
15	2	0	
20	0	0	
20	0.5	0	
20	1	0	
20	1.5	0	
20	2	0	
25	0	0	
25	0.5	0	
25	1	0	
25	1.5	0	
25	2	0	
30	0	0	
30	0.5	0	
30	1	0	
30	1.5	0	
30	2	0	
35	0	0	
35	0.5	0	
35	1	0	
35	1.5	0	
35	2	0	
40	0	0	
40	0.5	0	
40	1	0	
40	1.5	0	
40	2	0	
45	0	0	
45	0.5	0	
45	1	0	
45	1.5	0	
45	2	0	
50	0	0	
50	0.5	0	
50	1	0	
50	1.5	0	
50	2	0	
2.5	0	0	
5	0.25	0	
2.5	0.5	0	
0	0.25	0	
5	0.75	0	
2.5	1	0	
0	0.75	0	
5	1.25	0	
2.5	1.5	0	
0	1.25	0	
5	1.75	0	
2.5	2	0	
0	1.75	0	
7.5	0	0	
10	0.25	0	
7.5	0.5	0	
10	0.75	0	
7.5	1	0	
10	1.25	0	
7.5	1.5	0	
10	1.75	0	
7.5	2	0	
12.5	0	0	
15	0.25	0	
12.5	0.5	0	
15	0.75	0	
12.5	1	0	
15	1.25	0	
12.5	1.5	0	
15	1.75	0	
12.5	2	0	
17.5	0	0	
20	0.25	0	
17.5	0.5	0	
20	0.75	0	
17.5	1	0	
20	1.25	0	
17.5	1.5	0	
20	1.75	0	
17.5	2	0	
22.5	0	0	
25	0.25	0	
22.5	0.5	0	
25	0.75	0	
22.5	1	0	
25	1.25	0	
22.5	1.5	0	
25	1.75	0	
22.5	2	0	
27.5	0	0	
30	0.25	0	
27.5	0.5	0	
30	0.75	0	
27.5	1	0	
30	1.25	0	
27.5	1.5	0	
30	1.75	0	
27.5	2	0	
32.5	0	0	
35	0.25	0	
32.5	0.5	0	
35	0.75	0	
32.5	1	0	
35	1.25	0	
32.5	1.5	0	
35	1.75	0	
32.5	2	0	
37.5	0	0	
40	0.25	0	
37.5	0.5	0	
40	0.75	0	
37.5	1	0	
40	1.25	0	
37.5	1.5	0	
40	1.75	0	
37.5	2	0	
42.5	0	0	
45	0.25	0	
42.5	0.5	0	
45	0.75	0	
42.5	1	0	
45	1.25	0	
42.5	1.5	0	
45	1.75	0	
42.5	2	0	
47.5	0	0	
50	0.25	0	
47.5	0.5	0	
50	0.75	0	
47.5	1	0	
50	1.25	0	
47.5	1.5	0	
50	1.75	0	
47.5	2	0	

CELLS 40	360
8	0	5	6	1	55	56	57	58	
8	1	6	7	2	57	59	60	61	
8	2	7	8	3	60	62	63	64	
8	3	8	9	4	63	65	66	67	
8	5	10	11	6	68	69	70	56	
8	6	11	12	7	70	71	72	59	
8	7	12	13	8	72	73	74	62	
8	8	13	14	9	74	75	76	65	
8	10	15	16	11	77	78	79	69	
8	11	16	17	12	79	80	81	71	
8	12	17	18	13	81	82	83	73	
8	13	18	19	14	83	84	85	75	
8	15	20	21	16	86	87	88	78	
8	16	21	22	17	88	89	90	80	
8	17	22	23	18	90	91	92	82	
8	18	23	24	19	92	93	94	84	
8	20	25	26	21	95	96	97	87	
8	21	26	27	22	97	98	99	89	
8	22	27	28	23	99	100	101	91	
8	23	28	29	24	101	102	103	93	
8	25	30	31	26	104	105	106	96	
8	26	31	32	27	106	107	108	98	
8	27	32	33	28	108	109	110	100	
8	28	33	34	29	110	111	112	102	
8	30	35	36	31	113	114	115	105	
8	31	36	37	32	115	116	117	107	
8	32	37	38	33	117	118	119	109	
8	33	38	39	34	119	120	121	111	
8	35	40	41	36	122	123	124	114	
8	36	41	42	37	124	125	126	116	
8	37	42	43	38	126	127	128	118	
8	38	43	44	39	128	129	130	120	
8	40	45	46	41	131	132	133	123	
8	41	46	47	42	133	134	135	125	
8	42	47	48	43	135	136	137	127	
8	43	48	49	44	137	138	139	129	
8	45	50	51	46	140	141	142	132	
8	46	51	52	47	142	143	144	134	
8	47	52	53	48	144	145	146	136	
8	48	53	54	49	146	147	148	138	

CELL_TYPES	40
23
23
23
23
23
23
23
23
23
23
23
23
23
23
23
23
23
23
23
23
23
23
23
23
23
23
23
23
23
23
23
23
23
23
23
23
23
23
23
23

POINT_DATA	149
VECTORS u float
-2.04726e-005	-4.03428e-005	0	
2.33233	-2.54916	0	
6.52697	-3.84835	0	
11.9989	-4.30216	0	
19.0013	-4.33597	0	
1.8622	-43.9849	0	
-0.668493	-44.1294	0	
-2.03966	-43.9645	0	
-3.22753	-43.757	0	
-4.74567	-43.6631	0	
2.4621	0.34241	0	
-2.21051	0.333807	0	
-6.45144	0.38681	0	
-10.7065	0.432925	0	
-15.2902	0.452048	0	
-13.2014	15.9294	0	
-11.756	15.9333	0	
-10.4808	15.9469	0	
-9.21374	15.948	0	
-7.76812	15.946	0	
-19.6324	-10.0302	0	
-16.671	-10.0317	0	
-13.9527	-10.0321	0	
-11.2362	-10.0302	0	
-8.27619	-10.0287	0	
-14.526	-20.5492	0	
-15.7207	-20.5536	0	
-16.8712	-20.5583	0	
-18.0218	-20.5534	0	
-19.2167	-20.5491	0	
-10.7258	10.1193	0	
-15.1388	10.1188	0	
-19.2449	10.1193	0	
-23.3504	10.1201	0	
-27.764	10.1204	0	
-20.1448	39.3548	0	
-20.6927	39.3578	0	
-21.083	39.3684	0	
-21.4729	39.365	0	
-22.0309	39.3602	0	
-37.366	3.24351	0	
-29.5972	3.21082	0	
-22.3711	3.21429	0	
-15.1616	3.22752	0	
-7.4794	3.23638	0	
-31.3491	-71.0719	0	
-26.6974	-71.3569	0	
-23.0698	-71.5038	0	
-19.5996	-71.501	0	
-15.4209	-71.4641	0	
7.16022	-4.03428e-005	0	
-9.81969	-2.73831	0	
-23.8727	-4.65428	0	
-37.3028	-5.51147	0	
-52.3121	-5.63787	0	
-7.37828	-36.2857	0	
0.530216	-44.0907	0	
-2.2923	-35.7761	0	
1.1729	-1.3838	0	
-1.34348	-44.0213	0	
1.9836	-35.2945	0	
4.43287	-3.22368	0	
-2.59404	-43.8363	0	
5.87046	-35.143	0	
9.17109	-4.09789	0	
-3.91493	-43.6945	0	
9.86172	-35.139	0	
15.3174	-4.33149	0	
4.54617	-24.4938	0	
0.0880772	0.348732	0	
0.111772	-24.4926	0	
-4.35282	0.352422	0	
-4.21422	-24.5456	0	
-8.57149	0.402035	0	
-8.52583	-24.5906	0	
-12.9608	0.43899	0	
-13.0345	-24.6071	0	
-5.44182	15.8642	0	
-12.4524	15.9292	0	
-6.98089	15.8532	0	
-11.1075	15.9415	0	
-8.5392	15.8349	0	
-9.85453	15.9489	0	
-10.0891	15.8379	0	
-8.51709	15.9486	0	
-11.6284	15.8465	0	
-17.4642	4.83511	0	
-18.1275	-10.0304	0	
-14.851	4.83397	0	
-15.3046	-10.0322	0	
-12.2894	4.83183	0	
-12.6028	-10.0314	0	
-9.72606	4.83287	0	
-9.7805	-10.03	0	
-7.11087	4.83399	0	
-17.5762	-20.5491	0	
-15.1266	-20.5523	0	
-16.5178	-20.5428	0	
-16.2968	-20.5552	0	
-15.481	-20.5374	0	
-17.4452	-20.5551	0	
-14.444	-20.5429	0	
-18.6157	-20.5516	0	
-13.3854	-20.5491	0	
-12.0079	-9.30201	0	
-12.9639	10.1197	0	
-15.0828	-9.29622	0	
-17.2025	10.1187	0	
-18.1254	-9.29129	0	
-21.2877	10.1193	0	
-21.1681	-9.29631	0	
-25.5263	10.1197	0	
-24.2428	-9.30201	0	
-14.4027	29.557	0	
-20.4392	39.3537	0	
-17.3458	29.554	0	
-20.8935	39.3644	0	
-20.2307	29.5501	0	
-21.2695	39.3681	0	
-23.1163	29.5525	0	
-21.7285	39.3644	0	
-26.0594	29.5555	0	
-28.9996	31.7613	0	
-33.4561	3.2401	0	
-25.4094	31.7516	0	
-25.979	3.20448	0	
-21.8033	31.7368	0	
-18.7817	3.21239	0	
-18.1976	31.7447	0	
-11.3576	3.2285	0	
-14.5961	31.756	0	
-37.6603	-37.6344	0	
-28.8484	-71.2569	0	
-30.185	-37.6157	0	
-24.8138	-71.4047	0	
-22.8704	-37.6247	0	
-21.3674	-71.4759	0	
-15.5374	-37.6369	0	
-17.6457	-71.4656	0	
-7.98204	-37.6395	0	
-9.81725	-66.3048	0	
-1.72627	-1.46151	0	
-16.7891	-65.6205	0	
-17.0219	-3.71768	0	
-23.4416	-64.8044	0	
-30.5397	-5.10517	0	
-29.9727	-64.4421	0	
-44.5429	-5.58709	0	
-36.6208	-64.3881	0	
