# vtk DataFile Version 4.1
vtk output
ASCII
DATASET UNSTRUCTURED_GRID

POINTS	149	float
0	0	0	
0	0.5	0	
0	1	0	
0	1.5	0	
0	2	0	
5	0	0	
5	0.5	0	
5	1	0	
5	1.5	0	
5	2	0	
10	0	0	
10	0.5	0	
10	1	0	
10	1.5	0	
10	2	0	
15	0	0	
15	0.5	0	
15	1	0	
15	1.5	0	
15	2	0	
20	0	0	
20	0.5	0	
20	1	0	
20	1.5	0	
20	2	0	
25	0	0	
25	0.5	0	
25	1	0	
25	1.5	0	
25	2	0	
30	0	0	
30	0.5	0	
30	1	0	
30	1.5	0	
30	2	0	
35	0	0	
35	0.5	0	
35	1	0	
35	1.5	0	
35	2	0	
40	0	0	
40	0.5	0	
40	1	0	
40	1.5	0	
40	2	0	
45	0	0	
45	0.5	0	
45	1	0	
45	1.5	0	
45	2	0	
50	0	0	
50	0.5	0	
50	1	0	
50	1.5	0	
50	2	0	
2.5	0	0	
5	0.25	0	
2.5	0.5	0	
0	0.25	0	
5	0.75	0	
2.5	1	0	
0	0.75	0	
5	1.25	0	
2.5	1.5	0	
0	1.25	0	
5	1.75	0	
2.5	2	0	
0	1.75	0	
7.5	0	0	
10	0.25	0	
7.5	0.5	0	
10	0.75	0	
7.5	1	0	
10	1.25	0	
7.5	1.5	0	
10	1.75	0	
7.5	2	0	
12.5	0	0	
15	0.25	0	
12.5	0.5	0	
15	0.75	0	
12.5	1	0	
15	1.25	0	
12.5	1.5	0	
15	1.75	0	
12.5	2	0	
17.5	0	0	
20	0.25	0	
17.5	0.5	0	
20	0.75	0	
17.5	1	0	
20	1.25	0	
17.5	1.5	0	
20	1.75	0	
17.5	2	0	
22.5	0	0	
25	0.25	0	
22.5	0.5	0	
25	0.75	0	
22.5	1	0	
25	1.25	0	
22.5	1.5	0	
25	1.75	0	
22.5	2	0	
27.5	0	0	
30	0.25	0	
27.5	0.5	0	
30	0.75	0	
27.5	1	0	
30	1.25	0	
27.5	1.5	0	
30	1.75	0	
27.5	2	0	
32.5	0	0	
35	0.25	0	
32.5	0.5	0	
35	0.75	0	
32.5	1	0	
35	1.25	0	
32.5	1.5	0	
35	1.75	0	
32.5	2	0	
37.5	0	0	
40	0.25	0	
37.5	0.5	0	
40	0.75	0	
37.5	1	0	
40	1.25	0	
37.5	1.5	0	
40	1.75	0	
37.5	2	0	
42.5	0	0	
45	0.25	0	
42.5	0.5	0	
45	0.75	0	
42.5	1	0	
45	1.25	0	
42.5	1.5	0	
45	1.75	0	
42.5	2	0	
47.5	0	0	
50	0.25	0	
47.5	0.5	0	
50	0.75	0	
47.5	1	0	
50	1.25	0	
47.5	1.5	0	
50	1.75	0	
47.5	2	0	

CELLS 40	360
8	0	5	6	1	55	56	57	58	
8	1	6	7	2	57	59	60	61	
8	2	7	8	3	60	62	63	64	
8	3	8	9	4	63	65	66	67	
8	5	10	11	6	68	69	70	56	
8	6	11	12	7	70	71	72	59	
8	7	12	13	8	72	73	74	62	
8	8	13	14	9	74	75	76	65	
8	10	15	16	11	77	78	79	69	
8	11	16	17	12	79	80	81	71	
8	12	17	18	13	81	82	83	73	
8	13	18	19	14	83	84	85	75	
8	15	20	21	16	86	87	88	78	
8	16	21	22	17	88	89	90	80	
8	17	22	23	18	90	91	92	82	
8	18	23	24	19	92	93	94	84	
8	20	25	26	21	95	96	97	87	
8	21	26	27	22	97	98	99	89	
8	22	27	28	23	99	100	101	91	
8	23	28	29	24	101	102	103	93	
8	25	30	31	26	104	105	106	96	
8	26	31	32	27	106	107	108	98	
8	27	32	33	28	108	109	110	100	
8	28	33	34	29	110	111	112	102	
8	30	35	36	31	113	114	115	105	
8	31	36	37	32	115	116	117	107	
8	32	37	38	33	117	118	119	109	
8	33	38	39	34	119	120	121	111	
8	35	40	41	36	122	123	124	114	
8	36	41	42	37	124	125	126	116	
8	37	42	43	38	126	127	128	118	
8	38	43	44	39	128	129	130	120	
8	40	45	46	41	131	132	133	123	
8	41	46	47	42	133	134	135	125	
8	42	47	48	43	135	136	137	127	
8	43	48	49	44	137	138	139	129	
8	45	50	51	46	140	141	142	132	
8	46	51	52	47	142	143	144	134	
8	47	52	53	48	144	145	146	136	
8	48	53	54	49	146	147	148	138	

CELL_TYPES	40
23
23
23
23
23
23
23
23
23
23
23
23
23
23
23
23
23
23
23
23
23
23
23
23
23
23
23
23
23
23
23
23
23
23
23
23
23
23
23
23

POINT_DATA	149
VECTORS u float
-0.0332413	-0.0285922	0	
-0.0201149	-0.00904875	0	
-0.0170121	-0.00905824	0	
-0.0139074	-0.00904696	0	
-0.0206242	-0.0285893	0	
-0.0212438	-0.03619	0	
0.000370415	0.00291747	0	
0.00211088	0.00291333	0	
0.00385484	0.00291706	0	
-0.0142182	-0.0361904	0	
-0.0178246	-0.0419243	0	
0.00166616	-0.00281587	0	
0.00140375	-0.00281904	0	
0.00114452	-0.00281589	0	
-0.0190522	-0.0419243	0	
-0.0185285	-0.0382794	0	
0.00110342	0.000830691	0	
0.000909002	0.000829338	0	
0.000717694	0.000830711	0	
-0.019338	-0.0382794	0	
-0.0197625	-0.0390088	0	
0.000365166	0.000100975	0	
0.000616716	9.91795e-005	0	
0.000871361	0.000100967	0	
-0.0186886	-0.0390088	0	
-0.0193165	-0.0407665	0	
0.000524491	-0.00165719	0	
0.000520176	-0.00165958	0	
0.000518987	-0.00165717	0	
-0.0193277	-0.0407665	0	
-0.0186816	-0.0389607	0	
0.000874618	0.00014916	0	
0.000616345	0.000147373	0	
0.000361192	0.000149146	0	
-0.0197702	-0.0389607	0	
-0.0193404	-0.0382145	0	
0.00071603	0.000895682	0	
0.00090801	0.000894331	0	
0.0011031	0.000895667	0	
-0.018528	-0.0382145	0	
-0.0190631	-0.0418877	0	
0.00113825	-0.00277926	0	
0.00140203	-0.00278239	0	
0.00166899	-0.00277924	0	
-0.0178172	-0.0418877	0	
-0.0142349	-0.0362123	0	
0.00384539	0.00289526	0	
0.00210859	0.00289155	0	
0.000375225	0.00289568	0	
-0.0212317	-0.0362118	0	
-0.0206429	-0.0286899	0	
-0.0139179	-0.00914754	0	
-0.0170143	-0.00915881	0	
-0.0201091	-0.00914934	0	
-0.0332272	-0.0286928	0	
-0.0329261	-0.0451209	0	
0.0200298	0.0446262	0	
-0.020622	-0.0268564	0	
-0.0114317	0.0118117	0	
0.0217795	0.044621	0	
-0.0179377	-0.0268536	0	
-0.00828949	0.0117983	0	
0.0235192	0.0446208	0	
-0.0152531	-0.0268561	0	
-0.00519621	0.0117992	0	
0.0252767	0.0446257	0	
-0.0221051	-0.0451204	0	
-0.00204982	0.0118142	0	
-0.0294869	-0.0624016	0	
0.0223704	0.0388928	0	
-0.0193451	-0.0441364	0	
0.0220686	0.0388877	0	
-0.0187615	-0.0441327	0	
0.021816	0.0388877	0	
-0.0181797	-0.0441364	0	
0.021521	0.0388928	0	
-0.0271965	-0.0624016	0	
-0.0282174	-0.0605733	0	
0.0217497	0.0425386	0	
-0.019005	-0.0423126	0	
0.0215439	0.0425351	0	
-0.0193609	-0.0423126	0	
0.0213511	0.0425351	0	
-0.0197187	-0.0423126	0	
0.0211521	0.0425386	0	
-0.0296647	-0.0605733	0	
-0.0294799	-0.0586938	0	
0.0207675	0.0418089	0	
-0.0198245	-0.0404325	0	
0.02103	0.0418053	0	
-0.0197533	-0.0404321	0	
0.0212805	0.0418053	0	
-0.0196839	-0.0404325	0	
0.0215497	0.0418089	0	
-0.029187	-0.0586938	0	
-0.0298779	-0.0609372	0	
0.0210662	0.0400509	0	
-0.020121	-0.0426742	0	
0.0210601	0.0400469	0	
-0.0199472	-0.0426724	0	
0.0210573	0.0400469	0	
-0.0197753	-0.0426742	0	
0.0210579	0.0400509	0	
-0.0291768	-0.0609372	0	
-0.0291673	-0.0609105	0	
0.0215548	0.0418571	0	
-0.0197706	-0.0426475	0	
0.0212819	0.0418535	0	
-0.0199474	-0.0426457	0	
0.0210278	0.0418535	0	
-0.0201259	-0.0426475	0	
0.0207617	0.0418571	0	
-0.0298877	-0.0609105	0	
-0.0291843	-0.0586315	0	
0.0211501	0.0426036	0	
-0.0196829	-0.0403702	0	
0.0213498	0.0426001	0	
-0.019754	-0.0403699	0	
0.0215432	0.0426001	0	
-0.0198268	-0.0403702	0	
0.0217498	0.0426036	0	
-0.0294839	-0.0586315	0	
-0.0296718	-0.0605178	0	
0.0215124	0.0389294	0	
-0.0197229	-0.0422571	0	
0.021812	0.0389243	0	
-0.0193623	-0.042257	0	
0.0220692	0.0389243	0	
-0.0190035	-0.0422571	0	
0.0223755	0.0389294	0	
-0.0282131	-0.0605178	0	
-0.0272102	-0.0623909	0	
0.0252636	0.0446039	0	
-0.0181876	-0.0441257	0	
0.0235133	0.044599	0	
-0.0187635	-0.044122	0	
0.0217808	0.0445992	0	
-0.0193413	-0.0441257	0	
0.0200382	0.0446044	0	
-0.0294773	-0.0623909	0	
-0.0221232	-0.0451804	0	
-0.0020644	0.0117136	0	
-0.0152633	-0.0269161	0	
-0.00520257	0.0116987	0	
-0.01794	-0.0269136	0	
-0.00828772	0.0116977	0	
-0.0206164	-0.0269165	0	
-0.0114218	0.0117111	0	
-0.0329127	-0.0451809	0	
