# vtk DataFile Version 4.1
vtk output
ASCII
DATASET UNSTRUCTURED_GRID

POINTS	30401	float
0	0	0	
0	1	0	
0	2	0	
0	3	0	
0	4	0	
0	5	0	
0	6	0	
0	7	0	
0	8	0	
0	9	0	
0	10	0	
0	11	0	
0	12	0	
0	13	0	
0	14	0	
0	15	0	
0	16	0	
0	17	0	
0	18	0	
0	19	0	
0	20	0	
0	21	0	
0	22	0	
0	23	0	
0	24	0	
0	25	0	
0	26	0	
0	27	0	
0	28	0	
0	29	0	
0	30	0	
0	31	0	
0	32	0	
0	33	0	
0	34	0	
0	35	0	
0	36	0	
0	37	0	
0	38	0	
0	39	0	
0	40	0	
0	41	0	
0	42	0	
0	43	0	
0	44	0	
0	45	0	
0	46	0	
0	47	0	
0	48	0	
0	49	0	
0	50	0	
0	51	0	
0	52	0	
0	53	0	
0	54	0	
0	55	0	
0	56	0	
0	57	0	
0	58	0	
0	59	0	
0	60	0	
0	61	0	
0	62	0	
0	63	0	
0	64	0	
0	65	0	
0	66	0	
0	67	0	
0	68	0	
0	69	0	
0	70	0	
0	71	0	
0	72	0	
0	73	0	
0	74	0	
0	75	0	
0	76	0	
0	77	0	
0	78	0	
0	79	0	
0	80	0	
0	81	0	
0	82	0	
0	83	0	
0	84	0	
0	85	0	
0	86	0	
0	87	0	
0	88	0	
0	89	0	
0	90	0	
0	91	0	
0	92	0	
0	93	0	
0	94	0	
0	95	0	
0	96	0	
0	97	0	
0	98	0	
0	99	0	
0	100	0	
1	0	0	
1	1	0	
1	2	0	
1	3	0	
1	4	0	
1	5	0	
1	6	0	
1	7	0	
1	8	0	
1	9	0	
1	10	0	
1	11	0	
1	12	0	
1	13	0	
1	14	0	
1	15	0	
1	16	0	
1	17	0	
1	18	0	
1	19	0	
1	20	0	
1	21	0	
1	22	0	
1	23	0	
1	24	0	
1	25	0	
1	26	0	
1	27	0	
1	28	0	
1	29	0	
1	30	0	
1	31	0	
1	32	0	
1	33	0	
1	34	0	
1	35	0	
1	36	0	
1	37	0	
1	38	0	
1	39	0	
1	40	0	
1	41	0	
1	42	0	
1	43	0	
1	44	0	
1	45	0	
1	46	0	
1	47	0	
1	48	0	
1	49	0	
1	50	0	
1	51	0	
1	52	0	
1	53	0	
1	54	0	
1	55	0	
1	56	0	
1	57	0	
1	58	0	
1	59	0	
1	60	0	
1	61	0	
1	62	0	
1	63	0	
1	64	0	
1	65	0	
1	66	0	
1	67	0	
1	68	0	
1	69	0	
1	70	0	
1	71	0	
1	72	0	
1	73	0	
1	74	0	
1	75	0	
1	76	0	
1	77	0	
1	78	0	
1	79	0	
1	80	0	
1	81	0	
1	82	0	
1	83	0	
1	84	0	
1	85	0	
1	86	0	
1	87	0	
1	88	0	
1	89	0	
1	90	0	
1	91	0	
1	92	0	
1	93	0	
1	94	0	
1	95	0	
1	96	0	
1	97	0	
1	98	0	
1	99	0	
1	100	0	
2	0	0	
2	1	0	
2	2	0	
2	3	0	
2	4	0	
2	5	0	
2	6	0	
2	7	0	
2	8	0	
2	9	0	
2	10	0	
2	11	0	
2	12	0	
2	13	0	
2	14	0	
2	15	0	
2	16	0	
2	17	0	
2	18	0	
2	19	0	
2	20	0	
2	21	0	
2	22	0	
2	23	0	
2	24	0	
2	25	0	
2	26	0	
2	27	0	
2	28	0	
2	29	0	
2	30	0	
2	31	0	
2	32	0	
2	33	0	
2	34	0	
2	35	0	
2	36	0	
2	37	0	
2	38	0	
2	39	0	
2	40	0	
2	41	0	
2	42	0	
2	43	0	
2	44	0	
2	45	0	
2	46	0	
2	47	0	
2	48	0	
2	49	0	
2	50	0	
2	51	0	
2	52	0	
2	53	0	
2	54	0	
2	55	0	
2	56	0	
2	57	0	
2	58	0	
2	59	0	
2	60	0	
2	61	0	
2	62	0	
2	63	0	
2	64	0	
2	65	0	
2	66	0	
2	67	0	
2	68	0	
2	69	0	
2	70	0	
2	71	0	
2	72	0	
2	73	0	
2	74	0	
2	75	0	
2	76	0	
2	77	0	
2	78	0	
2	79	0	
2	80	0	
2	81	0	
2	82	0	
2	83	0	
2	84	0	
2	85	0	
2	86	0	
2	87	0	
2	88	0	
2	89	0	
2	90	0	
2	91	0	
2	92	0	
2	93	0	
2	94	0	
2	95	0	
2	96	0	
2	97	0	
2	98	0	
2	99	0	
2	100	0	
3	0	0	
3	1	0	
3	2	0	
3	3	0	
3	4	0	
3	5	0	
3	6	0	
3	7	0	
3	8	0	
3	9	0	
3	10	0	
3	11	0	
3	12	0	
3	13	0	
3	14	0	
3	15	0	
3	16	0	
3	17	0	
3	18	0	
3	19	0	
3	20	0	
3	21	0	
3	22	0	
3	23	0	
3	24	0	
3	25	0	
3	26	0	
3	27	0	
3	28	0	
3	29	0	
3	30	0	
3	31	0	
3	32	0	
3	33	0	
3	34	0	
3	35	0	
3	36	0	
3	37	0	
3	38	0	
3	39	0	
3	40	0	
3	41	0	
3	42	0	
3	43	0	
3	44	0	
3	45	0	
3	46	0	
3	47	0	
3	48	0	
3	49	0	
3	50	0	
3	51	0	
3	52	0	
3	53	0	
3	54	0	
3	55	0	
3	56	0	
3	57	0	
3	58	0	
3	59	0	
3	60	0	
3	61	0	
3	62	0	
3	63	0	
3	64	0	
3	65	0	
3	66	0	
3	67	0	
3	68	0	
3	69	0	
3	70	0	
3	71	0	
3	72	0	
3	73	0	
3	74	0	
3	75	0	
3	76	0	
3	77	0	
3	78	0	
3	79	0	
3	80	0	
3	81	0	
3	82	0	
3	83	0	
3	84	0	
3	85	0	
3	86	0	
3	87	0	
3	88	0	
3	89	0	
3	90	0	
3	91	0	
3	92	0	
3	93	0	
3	94	0	
3	95	0	
3	96	0	
3	97	0	
3	98	0	
3	99	0	
3	100	0	
4	0	0	
4	1	0	
4	2	0	
4	3	0	
4	4	0	
4	5	0	
4	6	0	
4	7	0	
4	8	0	
4	9	0	
4	10	0	
4	11	0	
4	12	0	
4	13	0	
4	14	0	
4	15	0	
4	16	0	
4	17	0	
4	18	0	
4	19	0	
4	20	0	
4	21	0	
4	22	0	
4	23	0	
4	24	0	
4	25	0	
4	26	0	
4	27	0	
4	28	0	
4	29	0	
4	30	0	
4	31	0	
4	32	0	
4	33	0	
4	34	0	
4	35	0	
4	36	0	
4	37	0	
4	38	0	
4	39	0	
4	40	0	
4	41	0	
4	42	0	
4	43	0	
4	44	0	
4	45	0	
4	46	0	
4	47	0	
4	48	0	
4	49	0	
4	50	0	
4	51	0	
4	52	0	
4	53	0	
4	54	0	
4	55	0	
4	56	0	
4	57	0	
4	58	0	
4	59	0	
4	60	0	
4	61	0	
4	62	0	
4	63	0	
4	64	0	
4	65	0	
4	66	0	
4	67	0	
4	68	0	
4	69	0	
4	70	0	
4	71	0	
4	72	0	
4	73	0	
4	74	0	
4	75	0	
4	76	0	
4	77	0	
4	78	0	
4	79	0	
4	80	0	
4	81	0	
4	82	0	
4	83	0	
4	84	0	
4	85	0	
4	86	0	
4	87	0	
4	88	0	
4	89	0	
4	90	0	
4	91	0	
4	92	0	
4	93	0	
4	94	0	
4	95	0	
4	96	0	
4	97	0	
4	98	0	
4	99	0	
4	100	0	
5	0	0	
5	1	0	
5	2	0	
5	3	0	
5	4	0	
5	5	0	
5	6	0	
5	7	0	
5	8	0	
5	9	0	
5	10	0	
5	11	0	
5	12	0	
5	13	0	
5	14	0	
5	15	0	
5	16	0	
5	17	0	
5	18	0	
5	19	0	
5	20	0	
5	21	0	
5	22	0	
5	23	0	
5	24	0	
5	25	0	
5	26	0	
5	27	0	
5	28	0	
5	29	0	
5	30	0	
5	31	0	
5	32	0	
5	33	0	
5	34	0	
5	35	0	
5	36	0	
5	37	0	
5	38	0	
5	39	0	
5	40	0	
5	41	0	
5	42	0	
5	43	0	
5	44	0	
5	45	0	
5	46	0	
5	47	0	
5	48	0	
5	49	0	
5	50	0	
5	51	0	
5	52	0	
5	53	0	
5	54	0	
5	55	0	
5	56	0	
5	57	0	
5	58	0	
5	59	0	
5	60	0	
5	61	0	
5	62	0	
5	63	0	
5	64	0	
5	65	0	
5	66	0	
5	67	0	
5	68	0	
5	69	0	
5	70	0	
5	71	0	
5	72	0	
5	73	0	
5	74	0	
5	75	0	
5	76	0	
5	77	0	
5	78	0	
5	79	0	
5	80	0	
5	81	0	
5	82	0	
5	83	0	
5	84	0	
5	85	0	
5	86	0	
5	87	0	
5	88	0	
5	89	0	
5	90	0	
5	91	0	
5	92	0	
5	93	0	
5	94	0	
5	95	0	
5	96	0	
5	97	0	
5	98	0	
5	99	0	
5	100	0	
6	0	0	
6	1	0	
6	2	0	
6	3	0	
6	4	0	
6	5	0	
6	6	0	
6	7	0	
6	8	0	
6	9	0	
6	10	0	
6	11	0	
6	12	0	
6	13	0	
6	14	0	
6	15	0	
6	16	0	
6	17	0	
6	18	0	
6	19	0	
6	20	0	
6	21	0	
6	22	0	
6	23	0	
6	24	0	
6	25	0	
6	26	0	
6	27	0	
6	28	0	
6	29	0	
6	30	0	
6	31	0	
6	32	0	
6	33	0	
6	34	0	
6	35	0	
6	36	0	
6	37	0	
6	38	0	
6	39	0	
6	40	0	
6	41	0	
6	42	0	
6	43	0	
6	44	0	
6	45	0	
6	46	0	
6	47	0	
6	48	0	
6	49	0	
6	50	0	
6	51	0	
6	52	0	
6	53	0	
6	54	0	
6	55	0	
6	56	0	
6	57	0	
6	58	0	
6	59	0	
6	60	0	
6	61	0	
6	62	0	
6	63	0	
6	64	0	
6	65	0	
6	66	0	
6	67	0	
6	68	0	
6	69	0	
6	70	0	
6	71	0	
6	72	0	
6	73	0	
6	74	0	
6	75	0	
6	76	0	
6	77	0	
6	78	0	
6	79	0	
6	80	0	
6	81	0	
6	82	0	
6	83	0	
6	84	0	
6	85	0	
6	86	0	
6	87	0	
6	88	0	
6	89	0	
6	90	0	
6	91	0	
6	92	0	
6	93	0	
6	94	0	
6	95	0	
6	96	0	
6	97	0	
6	98	0	
6	99	0	
6	100	0	
7	0	0	
7	1	0	
7	2	0	
7	3	0	
7	4	0	
7	5	0	
7	6	0	
7	7	0	
7	8	0	
7	9	0	
7	10	0	
7	11	0	
7	12	0	
7	13	0	
7	14	0	
7	15	0	
7	16	0	
7	17	0	
7	18	0	
7	19	0	
7	20	0	
7	21	0	
7	22	0	
7	23	0	
7	24	0	
7	25	0	
7	26	0	
7	27	0	
7	28	0	
7	29	0	
7	30	0	
7	31	0	
7	32	0	
7	33	0	
7	34	0	
7	35	0	
7	36	0	
7	37	0	
7	38	0	
7	39	0	
7	40	0	
7	41	0	
7	42	0	
7	43	0	
7	44	0	
7	45	0	
7	46	0	
7	47	0	
7	48	0	
7	49	0	
7	50	0	
7	51	0	
7	52	0	
7	53	0	
7	54	0	
7	55	0	
7	56	0	
7	57	0	
7	58	0	
7	59	0	
7	60	0	
7	61	0	
7	62	0	
7	63	0	
7	64	0	
7	65	0	
7	66	0	
7	67	0	
7	68	0	
7	69	0	
7	70	0	
7	71	0	
7	72	0	
7	73	0	
7	74	0	
7	75	0	
7	76	0	
7	77	0	
7	78	0	
7	79	0	
7	80	0	
7	81	0	
7	82	0	
7	83	0	
7	84	0	
7	85	0	
7	86	0	
7	87	0	
7	88	0	
7	89	0	
7	90	0	
7	91	0	
7	92	0	
7	93	0	
7	94	0	
7	95	0	
7	96	0	
7	97	0	
7	98	0	
7	99	0	
7	100	0	
8	0	0	
8	1	0	
8	2	0	
8	3	0	
8	4	0	
8	5	0	
8	6	0	
8	7	0	
8	8	0	
8	9	0	
8	10	0	
8	11	0	
8	12	0	
8	13	0	
8	14	0	
8	15	0	
8	16	0	
8	17	0	
8	18	0	
8	19	0	
8	20	0	
8	21	0	
8	22	0	
8	23	0	
8	24	0	
8	25	0	
8	26	0	
8	27	0	
8	28	0	
8	29	0	
8	30	0	
8	31	0	
8	32	0	
8	33	0	
8	34	0	
8	35	0	
8	36	0	
8	37	0	
8	38	0	
8	39	0	
8	40	0	
8	41	0	
8	42	0	
8	43	0	
8	44	0	
8	45	0	
8	46	0	
8	47	0	
8	48	0	
8	49	0	
8	50	0	
8	51	0	
8	52	0	
8	53	0	
8	54	0	
8	55	0	
8	56	0	
8	57	0	
8	58	0	
8	59	0	
8	60	0	
8	61	0	
8	62	0	
8	63	0	
8	64	0	
8	65	0	
8	66	0	
8	67	0	
8	68	0	
8	69	0	
8	70	0	
8	71	0	
8	72	0	
8	73	0	
8	74	0	
8	75	0	
8	76	0	
8	77	0	
8	78	0	
8	79	0	
8	80	0	
8	81	0	
8	82	0	
8	83	0	
8	84	0	
8	85	0	
8	86	0	
8	87	0	
8	88	0	
8	89	0	
8	90	0	
8	91	0	
8	92	0	
8	93	0	
8	94	0	
8	95	0	
8	96	0	
8	97	0	
8	98	0	
8	99	0	
8	100	0	
9	0	0	
9	1	0	
9	2	0	
9	3	0	
9	4	0	
9	5	0	
9	6	0	
9	7	0	
9	8	0	
9	9	0	
9	10	0	
9	11	0	
9	12	0	
9	13	0	
9	14	0	
9	15	0	
9	16	0	
9	17	0	
9	18	0	
9	19	0	
9	20	0	
9	21	0	
9	22	0	
9	23	0	
9	24	0	
9	25	0	
9	26	0	
9	27	0	
9	28	0	
9	29	0	
9	30	0	
9	31	0	
9	32	0	
9	33	0	
9	34	0	
9	35	0	
9	36	0	
9	37	0	
9	38	0	
9	39	0	
9	40	0	
9	41	0	
9	42	0	
9	43	0	
9	44	0	
9	45	0	
9	46	0	
9	47	0	
9	48	0	
9	49	0	
9	50	0	
9	51	0	
9	52	0	
9	53	0	
9	54	0	
9	55	0	
9	56	0	
9	57	0	
9	58	0	
9	59	0	
9	60	0	
9	61	0	
9	62	0	
9	63	0	
9	64	0	
9	65	0	
9	66	0	
9	67	0	
9	68	0	
9	69	0	
9	70	0	
9	71	0	
9	72	0	
9	73	0	
9	74	0	
9	75	0	
9	76	0	
9	77	0	
9	78	0	
9	79	0	
9	80	0	
9	81	0	
9	82	0	
9	83	0	
9	84	0	
9	85	0	
9	86	0	
9	87	0	
9	88	0	
9	89	0	
9	90	0	
9	91	0	
9	92	0	
9	93	0	
9	94	0	
9	95	0	
9	96	0	
9	97	0	
9	98	0	
9	99	0	
9	100	0	
10	0	0	
10	1	0	
10	2	0	
10	3	0	
10	4	0	
10	5	0	
10	6	0	
10	7	0	
10	8	0	
10	9	0	
10	10	0	
10	11	0	
10	12	0	
10	13	0	
10	14	0	
10	15	0	
10	16	0	
10	17	0	
10	18	0	
10	19	0	
10	20	0	
10	21	0	
10	22	0	
10	23	0	
10	24	0	
10	25	0	
10	26	0	
10	27	0	
10	28	0	
10	29	0	
10	30	0	
10	31	0	
10	32	0	
10	33	0	
10	34	0	
10	35	0	
10	36	0	
10	37	0	
10	38	0	
10	39	0	
10	40	0	
10	41	0	
10	42	0	
10	43	0	
10	44	0	
10	45	0	
10	46	0	
10	47	0	
10	48	0	
10	49	0	
10	50	0	
10	51	0	
10	52	0	
10	53	0	
10	54	0	
10	55	0	
10	56	0	
10	57	0	
10	58	0	
10	59	0	
10	60	0	
10	61	0	
10	62	0	
10	63	0	
10	64	0	
10	65	0	
10	66	0	
10	67	0	
10	68	0	
10	69	0	
10	70	0	
10	71	0	
10	72	0	
10	73	0	
10	74	0	
10	75	0	
10	76	0	
10	77	0	
10	78	0	
10	79	0	
10	80	0	
10	81	0	
10	82	0	
10	83	0	
10	84	0	
10	85	0	
10	86	0	
10	87	0	
10	88	0	
10	89	0	
10	90	0	
10	91	0	
10	92	0	
10	93	0	
10	94	0	
10	95	0	
10	96	0	
10	97	0	
10	98	0	
10	99	0	
10	100	0	
11	0	0	
11	1	0	
11	2	0	
11	3	0	
11	4	0	
11	5	0	
11	6	0	
11	7	0	
11	8	0	
11	9	0	
11	10	0	
11	11	0	
11	12	0	
11	13	0	
11	14	0	
11	15	0	
11	16	0	
11	17	0	
11	18	0	
11	19	0	
11	20	0	
11	21	0	
11	22	0	
11	23	0	
11	24	0	
11	25	0	
11	26	0	
11	27	0	
11	28	0	
11	29	0	
11	30	0	
11	31	0	
11	32	0	
11	33	0	
11	34	0	
11	35	0	
11	36	0	
11	37	0	
11	38	0	
11	39	0	
11	40	0	
11	41	0	
11	42	0	
11	43	0	
11	44	0	
11	45	0	
11	46	0	
11	47	0	
11	48	0	
11	49	0	
11	50	0	
11	51	0	
11	52	0	
11	53	0	
11	54	0	
11	55	0	
11	56	0	
11	57	0	
11	58	0	
11	59	0	
11	60	0	
11	61	0	
11	62	0	
11	63	0	
11	64	0	
11	65	0	
11	66	0	
11	67	0	
11	68	0	
11	69	0	
11	70	0	
11	71	0	
11	72	0	
11	73	0	
11	74	0	
11	75	0	
11	76	0	
11	77	0	
11	78	0	
11	79	0	
11	80	0	
11	81	0	
11	82	0	
11	83	0	
11	84	0	
11	85	0	
11	86	0	
11	87	0	
11	88	0	
11	89	0	
11	90	0	
11	91	0	
11	92	0	
11	93	0	
11	94	0	
11	95	0	
11	96	0	
11	97	0	
11	98	0	
11	99	0	
11	100	0	
12	0	0	
12	1	0	
12	2	0	
12	3	0	
12	4	0	
12	5	0	
12	6	0	
12	7	0	
12	8	0	
12	9	0	
12	10	0	
12	11	0	
12	12	0	
12	13	0	
[...]
POINT_DATA	30401
VECTORS d float
-6.95543e-018	-1.27216e-017	0	
-4.44831e-007	-4.11429e-007	0	
-9.26832e-007	-7.72791e-007	0	
-1.40656e-006	-1.20653e-006	0	
-1.86158e-006	-1.67582e-006	0	
-2.30358e-006	-2.09281e-006	0	
-2.73458e-006	-2.50194e-006	0	
-3.13563e-006	-2.89906e-006	0	
-3.50809e-006	-3.2867e-006	0	
-3.85029e-006	-3.66062e-006	0	
-4.16903e-006	-4.02272e-006	0	
-4.46166e-006	-4.3756e-006	0	
-4.73456e-006	-4.72601e-006	0	
-4.9916e-006	-5.0779e-006	0	
-5.23144e-006	-5.43118e-006	0	
-5.44563e-006	-5.78776e-006	0	
-5.64373e-006	-6.15597e-006	0	
-5.82591e-006	-6.53067e-006	0	
-5.9951e-006	-6.91692e-006	0	
-6.1653e-006	-7.31202e-006	0	
-6.33958e-006	-7.71463e-006	0	
-6.52288e-006	-8.11686e-006	0	
-6.71007e-006	-8.52014e-006	0	
-6.90854e-006	-8.91459e-006	0	
-7.09828e-006	-9.2982e-006	0	
-7.28344e-006	-9.67633e-006	0	
-7.46143e-006	-1.00476e-005	0	
-7.63011e-006	-1.04181e-005	0	
-7.79394e-006	-1.07871e-005	0	
-7.94753e-006	-1.11555e-005	0	
-8.09362e-006	-1.15274e-005	0	
-8.23796e-006	-1.19001e-005	0	
-8.37835e-006	-1.22755e-005	0	
-8.51818e-006	-1.26497e-005	0	
-8.65263e-006	-1.30189e-005	0	
-8.78266e-006	-1.33834e-005	0	
-8.90398e-006	-1.37397e-005	0	
-9.01163e-006	-1.40918e-005	0	
-9.11036e-006	-1.44367e-005	0	
-9.19166e-006	-1.47786e-005	0	
-9.26351e-006	-1.51244e-005	0	
-9.33457e-006	-1.54674e-005	0	
-9.39831e-006	-1.5806e-005	0	
-9.46021e-006	-1.61466e-005	0	
-9.52081e-006	-1.64791e-005	0	
-9.58108e-006	-1.6807e-005	0	
-9.64456e-006	-1.71293e-005	0	
-9.7103e-006	-1.74397e-005	0	
-9.77612e-006	-1.77391e-005	0	
-9.83485e-006	-1.80259e-005	0	
-9.88476e-006	-1.83008e-005	0	
-9.92818e-006	-1.85648e-005	0	
-9.95644e-006	-1.88248e-005	0	
-9.98331e-006	-1.90791e-005	0	
-1.00064e-005	-1.93269e-005	0	
-1.00321e-005	-1.95695e-005	0	
-1.00639e-005	-1.97985e-005	0	
-1.00947e-005	-2.00171e-005	0	
-1.013e-005	-2.02226e-005	0	
-1.01641e-005	-2.04141e-005	0	
-1.01992e-005	-2.05911e-005	0	
-1.02231e-005	-2.0754e-005	0	
-1.02459e-005	-2.09018e-005	0	
-1.02559e-005	-2.10314e-005	0	
-1.02598e-005	-2.11521e-005	0	
-1.0258e-005	-2.12579e-005	0	
-1.02457e-005	-2.13526e-005	0	
-1.02316e-005	-2.14309e-005	0	
-1.02025e-005	-2.14886e-005	0	
-1.01608e-005	-2.15287e-005	0	
-1.01006e-005	-2.1551e-005	0	
-1.00213e-005	-2.15565e-005	0	
-9.91666e-006	-2.15457e-005	0	
-9.79024e-006	-2.15205e-005	0	
-9.63366e-006	-2.14838e-005	0	
-9.4518e-006	-2.14374e-005	0	
-9.23877e-006	-2.1383e-005	0	
-8.98701e-006	-2.1328e-005	0	
-8.70944e-006	-2.12767e-005	0	
-8.41673e-006	-2.12307e-005	0	
-8.1058e-006	-2.11893e-005	0	
-7.7819e-006	-2.1153e-005	0	
-7.45231e-006	-2.11217e-005	0	
-7.11605e-006	-2.10929e-005	0	
-6.77015e-006	-2.10668e-005	0	
-6.41518e-006	-2.10426e-005	0	
-6.04805e-006	-2.10192e-005	0	
-5.66707e-006	-2.10039e-005	0	
-5.28167e-006	-2.09948e-005	0	
-4.88974e-006	-2.09918e-005	0	
-4.49485e-006	-2.09948e-005	0	
-4.09378e-006	-2.09988e-005	0	
-3.69352e-006	-2.1006e-005	0	
-3.29209e-006	-2.10159e-005	0	
-2.89098e-006	-2.10254e-005	0	
-2.48387e-006	-2.10327e-005	0	
-2.07567e-006	-2.10429e-005	0	
-1.669e-006	-2.10482e-005	0	
-1.25647e-006	-2.10492e-005	0	
-8.43554e-007	-2.10499e-005	0	
-4.26795e-007	-2.10477e-005	0	
-1.90328e-018	-1.89997e-018	0	
-3.44032e-007	-1.64477e-007	0	
-7.73489e-007	-4.74875e-007	0	
-1.22547e-006	-8.93784e-007	0	
-1.67299e-006	-1.31242e-006	0	
-2.13017e-006	-1.7234e-006	0	
-2.55803e-006	-2.13365e-006	0	
-2.96389e-006	-2.54764e-006	0	
-3.33989e-006	-2.94975e-006	0	
-3.68813e-006	-3.34451e-006	0	
-4.00954e-006	-3.72739e-006	0	
-4.30685e-006	-4.10087e-006	0	
-4.57872e-006	-4.46687e-006	0	
-4.83593e-006	-4.83695e-006	0	
-5.0731e-006	-5.20607e-006	0	
-5.28683e-006	-5.58214e-006	0	
-5.48146e-006	-5.96117e-006	0	
-5.66043e-006	-6.35e-006	0	
-5.8278e-006	-6.74135e-006	0	
-5.99589e-006	-7.13958e-006	0	
-6.17317e-006	-7.53787e-006	0	
-6.35304e-006	-7.93735e-006	0	
-6.54328e-006	-8.33286e-006	0	
-6.74039e-006	-8.7271e-006	0	
-6.93558e-006	-9.11763e-006	0	
-7.12195e-006	-9.50097e-006	0	
-7.30102e-006	-9.88085e-006	0	
-7.47202e-006	-1.02579e-005	0	
-7.63164e-006	-1.06353e-005	0	
-7.78737e-006	-1.10132e-005	0	
-7.93405e-006	-1.13885e-005	0	
-8.07491e-006	-1.17671e-005	0	
-8.21757e-006	-1.21455e-005	0	
-8.35711e-006	-1.25227e-005	0	
-8.49314e-006	-1.28993e-005	0	
-8.6256e-006	-1.32698e-005	0	
-8.74663e-006	-1.36366e-005	0	
-8.85925e-006	-1.40004e-005	0	
-8.95751e-006	-1.43591e-005	0	
-9.04079e-006	-1.47139e-005	0	
-9.11514e-006	-1.50643e-005	0	
-9.18555e-006	-1.54122e-005	0	
-9.25236e-006	-1.57557e-005	0	
-9.31545e-006	-1.60941e-005	0	
-9.37846e-006	-1.64292e-005	0	
-9.44259e-006	-1.6757e-005	0	
-9.50941e-006	-1.70754e-005	0	
-9.5787e-006	-1.7389e-005	0	
-9.64806e-006	-1.76925e-005	0	
-9.71201e-006	-1.7988e-005	0	
-9.76805e-006	-1.82718e-005	0	
-9.81104e-006	-1.85458e-005	0	
-9.84707e-006	-1.88108e-005	0	
-9.8742e-006	-1.90683e-005	0	
-9.90289e-006	-1.93186e-005	0	
-9.93444e-006	-1.95562e-005	0	
-9.96835e-006	-1.97846e-005	0	
-1.00058e-005	-2.00013e-005	0	
-1.00456e-005	-2.02066e-005	0	
-1.00866e-005	-2.03998e-005	0	
-1.01222e-005	-2.05805e-005	0	
-1.0157e-005	-2.0752e-005	0	
-1.01826e-005	-2.09055e-005	0	
-1.02012e-005	-2.10462e-005	0	
-1.02103e-005	-2.11703e-005	0	
-1.02132e-005	-2.12879e-005	0	
-1.02097e-005	-2.13853e-005	0	
-1.01985e-005	-2.14725e-005	0	
-1.01799e-005	-2.15429e-005	0	
-1.01431e-005	-2.16e-005	0	
-1.00916e-005	-2.16392e-005	0	
-1.00178e-005	-2.16651e-005	0	
-9.92045e-006	-2.1677e-005	0	
-9.79816e-006	-2.16757e-005	0	
-9.64739e-006	-2.16648e-005	0	
-9.46692e-006	-2.16458e-005	0	
-9.25319e-006	-2.16236e-005	0	
-9.00517e-006	-2.1595e-005	0	
-8.72962e-006	-2.15637e-005	0	
-8.43366e-006	-2.15333e-005	0	
-8.12063e-006	-2.15074e-005	0	
-7.79686e-006	-2.14796e-005	0	
-7.46788e-006	-2.14546e-005	0	
-7.12806e-006	-2.14305e-005	0	
-6.78136e-006	-2.14121e-005	0	
-6.42445e-006	-2.13968e-005	0	
-6.0541e-006	-2.13867e-005	0	
-5.67273e-006	-2.13775e-005	0	
-5.28173e-006	-2.13738e-005	0	
-4.88936e-006	-2.13778e-005	0	
-4.49125e-006	-2.13846e-005	0	
-4.08991e-006	-2.13943e-005	0	
-3.6876e-006	-2.14027e-005	0	
-3.28597e-006	-2.1415e-005	0	
-2.8851e-006	-2.14269e-005	0	
-2.47881e-006	-2.14395e-005	0	
-2.07221e-006	-2.14495e-005	0	
-1.66553e-006	-2.14586e-005	0	
-1.25501e-006	-2.14626e-005	0	
-8.43383e-007	-2.14644e-005	0	
-4.29171e-007	-2.14627e-005	0	
-1.15896e-018	-4.26536e-018	0	
-3.27771e-007	-2.02367e-007	0	
-7.05764e-007	-4.68997e-007	0	
-1.10663e-006	-7.73991e-007	0	
-1.52574e-006	-1.09031e-006	0	
-1.97323e-006	-1.46993e-006	0	
-2.39209e-006	-1.85727e-006	0	
-2.79596e-006	-2.26304e-006	0	
-3.17019e-006	-2.66094e-006	0	
-3.51911e-006	-3.05904e-006	0	
-3.84476e-006	-3.45465e-006	0	
-4.14412e-006	-3.84016e-006	0	
-4.41946e-006	-4.22138e-006	0	
-4.67286e-006	-4.60216e-006	0	
-4.90807e-006	-4.98791e-006	0	
-5.12188e-006	-5.37485e-006	0	
-5.31477e-006	-5.76658e-006	0	
-5.49143e-006	-6.16217e-006	0	
-5.66024e-006	-6.56159e-006	0	
-5.83106e-006	-6.96155e-006	0	
-6.00803e-006	-7.36388e-006	0	
-6.19067e-006	-7.76545e-006	0	
-6.37972e-006	-8.1622e-006	0	
-6.57623e-006	-8.55591e-006	0	
-6.76977e-006	-8.94798e-006	0	
-6.95973e-006	-9.33815e-006	0	
-7.1407e-006	-9.72622e-006	0	
-7.30725e-006	-1.01121e-005	0	
-7.4697e-006	-1.04979e-005	0	
-7.62222e-006	-1.08822e-005	0	
-7.76943e-006	-1.12674e-005	0	
-7.91118e-006	-1.16518e-005	0	
-8.05058e-006	-1.20374e-005	0	
-8.19251e-006	-1.24225e-005	0	
-8.32934e-006	-1.28055e-005	0	
-8.46e-006	-1.31854e-005	0	
-8.58349e-006	-1.35617e-005	0	
-8.69556e-006	-1.39352e-005	0	
-8.79794e-006	-1.43057e-005	0	
-8.88341e-006	-1.467e-005	0	
-8.96093e-006	-1.50283e-005	0	
-9.03596e-006	-1.53795e-005	0	
-9.10213e-006	-1.57255e-005	0	
-9.16875e-006	-1.6067e-005	0	
-9.23558e-006	-1.64025e-005	0	
-9.30207e-006	-1.67315e-005	0	
-9.37216e-006	-1.70548e-005	0	
-9.44445e-006	-1.73679e-005	0	
-9.51503e-006	-1.76774e-005	0	
-9.58303e-006	-1.79775e-005	0	
-9.64252e-006	-1.82705e-005	0	
-9.69368e-006	-1.85522e-005	0	
-9.73124e-006	-1.88241e-005	0	
-9.7665e-006	-1.90851e-005	0	
-9.79984e-006	-1.9335e-005	0	
-9.83578e-006	-1.95748e-005	0	
-9.8766e-006	-1.98046e-005	0	
-9.91703e-006	-2.00238e-005	0	
-9.96263e-006	-2.02323e-005	0	
-1.00073e-005	-2.04271e-005	0	
-1.00492e-005	-2.06132e-005	0	
-1.00845e-005	-2.07849e-005	0	
-1.01191e-005	-2.09483e-005	0	
-1.01426e-005	-2.10941e-005	0	
-1.01582e-005	-2.12336e-005	0	
-1.01689e-005	-2.1351e-005	0	
-1.01697e-005	-2.14617e-005	0	
-1.01648e-005	-2.15538e-005	0	
-1.01498e-005	-2.16385e-005	0	
-1.01215e-005	-2.17058e-005	0	
-1.00738e-005	-2.17633e-005	0	
-1.00078e-005	-2.18072e-005	0	
-9.91575e-006	-2.18402e-005	0	
-9.79766e-006	-2.18615e-005	0	
-9.65029e-006	-2.18724e-005	0	
-9.46984e-006	-2.18761e-005	0	
-9.25749e-006	-2.18746e-005	0	
-9.01579e-006	-2.18685e-005	0	
-8.7444e-006	-2.18549e-005	0	
-8.44717e-006	-2.18396e-005	0	
-8.13506e-006	-2.18214e-005	0	
-7.81515e-006	-2.18041e-005	0	
-7.48478e-006	-2.17846e-005	0	
-7.1434e-006	-2.17683e-005	0	
-6.79222e-006	-2.17558e-005	0	
-6.43097e-006	-2.17483e-005	0	
-6.05928e-006	-2.17439e-005	0	
-5.67559e-006	-2.17429e-005	0	
-5.28347e-006	-2.17457e-005	0	
-4.88515e-006	-2.17511e-005	0	
-4.48545e-006	-2.17643e-005	0	
-4.08407e-006	-2.17773e-005	0	
-3.67999e-006	-2.17915e-005	0	
-3.27587e-006	-2.18064e-005	0	
-2.87432e-006	-2.18246e-005	0	
-2.47147e-006	-2.18387e-005	0	
-2.06562e-006	-2.18538e-005	0	
-1.65956e-006	-2.18648e-005	0	
-1.25203e-006	-2.18736e-005	0	
-8.4461e-007	-2.18768e-005	0	
-4.373e-007	-2.1877e-005	0	
-1.78785e-018	-4.41041e-018	0	
-3.25087e-007	-2.25515e-007	0	
-6.85022e-007	-4.67311e-007	0	
-1.04945e-006	-7.00845e-007	0	
-1.42951e-006	-9.65627e-007	0	
-1.85093e-006	-1.30143e-006	0	
-2.25049e-006	-1.65614e-006	0	
-2.6422e-006	-2.03486e-006	0	
-3.0125e-006	-2.4215e-006	0	
-3.35381e-006	-2.80501e-006	0	
-3.6795e-006	-3.20144e-006	0	
-3.98132e-006	-3.59478e-006	0	
-4.25447e-006	-3.98526e-006	0	
-4.50697e-006	-4.37467e-006	0	
-4.73877e-006	-4.77156e-006	0	
-4.95038e-006	-5.17114e-006	0	
-5.14375e-006	-5.57737e-006	0	
-5.32208e-006	-5.97994e-006	0	
-5.49465e-006	-6.38475e-006	0	
-5.66625e-006	-6.78879e-006	0	
-5.84357e-006	-7.19433e-006	0	
-6.02787e-006	-7.59849e-006	0	
-6.21875e-006	-8.00095e-006	0	
-6.41185e-006	-8.3971e-006	0	
-6.60557e-006	-8.79231e-006	0	
-6.79348e-006	-9.18983e-006	0	
-6.97399e-006	-9.58613e-006	0	
-7.14307e-006	-9.98178e-006	0	
-7.3017e-006	-1.03745e-005	0	
-7.45466e-006	-1.07676e-005	0	
-7.60002e-006	-1.11609e-005	0	
-7.7388e-006	-1.15537e-005	0	
-7.88024e-006	-1.19479e-005	0	
-8.01919e-006	-1.23423e-005	0	
-8.15709e-006	-1.27342e-005	0	
-8.28904e-006	-1.31253e-005	0	
-8.41176e-006	-1.35108e-005	0	
-8.52616e-006	-1.38938e-005	0	
-8.62955e-006	-1.42733e-005	0	
-8.72075e-006	-1.46447e-005	0	
-8.80439e-006	-1.50094e-005	0	
-8.88046e-006	-1.53664e-005	0	
-8.95189e-006	-1.57172e-005	0	
-9.02065e-006	-1.60621e-005	0	
-9.08849e-006	-1.64011e-005	0	
-9.15991e-006	-1.67354e-005	0	
-9.23218e-006	-1.70605e-005	0	
-9.3065e-006	-1.73792e-005	0	
-9.37866e-006	-1.76903e-005	0	
-9.44824e-006	-1.79975e-005	0	
-9.51281e-006	-1.82942e-005	0	
-9.56695e-006	-1.85849e-005	0	
-9.61568e-006	-1.88626e-005	0	
-9.65459e-006	-1.91302e-005	0	
-9.69413e-006	-1.93825e-005	0	
-9.73738e-006	-1.9628e-005	0	
-9.78127e-006	-1.9859e-005	0	
-9.8296e-006	-2.00826e-005	0	
-9.87862e-006	-2.02913e-005	0	
-9.9281e-006	-2.04937e-005	0	
-9.97475e-006	-2.0682e-005	0	
-1.00164e-005	-2.08612e-005	0	
-1.00511e-005	-2.10247e-005	0	
-1.00834e-005	-2.11835e-005	0	
-1.01051e-005	-2.13234e-005	0	
-1.0121e-005	-2.14543e-005	0	
-1.01291e-005	-2.15686e-005	0	
-1.01267e-005	-2.16765e-005	0	
-1.01192e-005	-2.17673e-005	0	
-1.00931e-005	-2.18499e-005	0	
-1.00515e-005	-2.19209e-005	0	
-9.9908e-006	-2.19815e-005	0	
-9.90395e-006	-2.20279e-005	0	
-9.78813e-006	-2.207e-005	0	
-9.64372e-006	-2.21015e-005	0	
-9.46658e-006	-2.21235e-005	0	
-9.25829e-006	-2.21373e-005	0	
-9.02126e-006	-2.21484e-005	0	
-8.75246e-006	-2.21528e-005	0	
-8.46016e-006	-2.2151e-005	0	
-8.15332e-006	-2.2142e-005	0	
-7.83488e-006	-2.21291e-005	0	
-7.50286e-006	-2.2118e-005	0	
-7.15972e-006	-2.2111e-005	0	
-6.80428e-006	-2.21039e-005	0	
-6.43898e-006	-2.2102e-005	0	
-6.06273e-006	-2.21011e-005	0	
-5.67881e-006	-2.21074e-005	0	
-5.28415e-006	-2.21141e-005	0	
-4.88198e-006	-2.21257e-005	0	
-4.47824e-006	-2.21385e-005	0	
-4.07603e-006	-2.21563e-005	0	
-3.6701e-006	-2.21739e-005	0	
-3.26397e-006	-2.21909e-005	0	
-2.86074e-006	-2.22097e-005	0	
-2.45839e-006	-2.22306e-005	0	
-2.05472e-006	-2.22477e-005	0	
-1.64943e-006	-2.22638e-005	0	
-1.24702e-006	-2.22741e-005	0	
-8.45254e-007	-2.22807e-005	0	
-4.4626e-007	-2.22787e-005	0	
-2.00984e-018	-5.05599e-018	0	
-3.18039e-007	-2.22981e-007	0	
-6.7308e-007	-4.45719e-007	0	
-1.02391e-006	-6.59635e-007	0	
-1.38111e-006	-8.97332e-007	0	
-1.76272e-006	-1.18844e-006	0	
-2.13953e-006	-1.5069e-006	0	
-2.51006e-006	-1.85185e-006	0	
-2.87222e-006	-2.21825e-006	0	
-3.20349e-006	-2.5826e-006	0	
-3.51879e-006	-2.96625e-006	0	
-3.81637e-006	-3.36527e-006	0	
-4.08889e-006	-3.76204e-006	0	
-4.33748e-006	-4.16113e-006	0	
-4.56578e-006	-4.5637e-006	0	
-4.77506e-006	-4.97407e-006	0	
-4.96914e-006	-5.38505e-006	0	
-5.15229e-006	-5.79898e-006	0	
-5.32697e-006	-6.20908e-006	0	
-5.50108e-006	-6.6225e-006	0	
-5.67884e-006	-7.03196e-006	0	
-5.8642e-006	-7.44234e-006	0	
-6.05507e-006	-7.84814e-006	0	
-6.24774e-006	-8.2503e-006	0	
-6.4385e-006	-8.65372e-006	0	
-6.62556e-006	-9.05465e-006	0	
-6.8033e-006	-9.4585e-006	0	
-6.97107e-006	-9.86237e-006	0	
-7.13056e-006	-1.02666e-005	0	
-7.28059e-006	-1.06699e-005	0	
-7.42358e-006	-1.10711e-005	0	
-7.56396e-006	-1.14729e-005	0	
-7.70062e-006	-1.18744e-005	0	
-7.83908e-006	-1.22764e-005	0	
-7.97615e-006	-1.26795e-005	0	
-8.10931e-006	-1.30788e-005	0	
-8.23354e-006	-1.34776e-005	0	
-8.34924e-006	-1.38698e-005	0	
-8.45711e-006	-1.42554e-005	0	
-8.55286e-006	-1.46352e-005	0	
-8.64075e-006	-1.50077e-005	0	
-8.72381e-006	-1.53727e-005	0	
-8.79791e-006	-1.57293e-005	0	
-8.8692e-006	-1.60786e-005	0	
-8.94166e-006	-1.64227e-005	0	
-9.01328e-006	-1.67582e-005	0	
-9.09024e-006	-1.70912e-005	0	
-9.16499e-006	-1.7416e-005	0	
-9.23936e-006	-1.77359e-005	0	
-9.31047e-006	-1.80461e-005	0	
-9.37765e-006	-1.83505e-005	0	
-9.43807e-006	-1.86432e-005	0	
-9.48999e-006	-1.893e-005	0	
-9.54001e-006	-1.92006e-005	0	
-9.58758e-006	-1.94645e-005	0	
-9.63428e-006	-1.97089e-005	0	
-9.6871e-006	-1.9949e-005	0	
-9.74099e-006	-2.01708e-005	0	
-9.79482e-006	-2.03878e-005	0	
-9.84748e-006	-2.05895e-005	0	
-9.89922e-006	-2.07879e-005	0	
-9.94419e-006	-2.09693e-005	0	
-9.98748e-006	-2.11428e-005	0	
-1.00209e-005	-2.13012e-005	0	
-1.00504e-005	-2.14508e-005	0	
-1.00727e-005	-2.15878e-005	0	
-1.0084e-005	-2.17149e-005	0	
-1.00895e-005	-2.18271e-005	0	
-1.00835e-005	-2.19315e-005	0	
-1.00635e-005	-2.20244e-005	0	
-1.00244e-005	-2.21092e-005	0	
-9.96892e-006	-2.21804e-005	0	
-9.88522e-006	-2.22444e-005	0	
-9.77122e-006	-2.22988e-005	0	
-9.63057e-006	-2.23483e-005	0	
-9.46045e-006	-2.23855e-005	0	
-9.25669e-006	-2.24184e-005	0	
-9.02237e-006	-2.24388e-005	0	
-8.75981e-006	-2.24574e-005	0	
-8.47542e-006	-2.24655e-005	0	
-8.17327e-006	-2.24661e-005	0	
-7.85536e-006	-2.24611e-005	0	
-7.52286e-006	-2.24591e-005	0	
-7.17662e-006	-2.2456e-005	0	
-6.8198e-006	-2.24555e-005	0	
-6.45114e-006	-2.24541e-005	0	
-6.06983e-006	-2.24598e-005	0	
-5.67875e-006	-2.24671e-005	0	
-5.2825e-006	-2.24811e-005	0	
-4.87871e-006	-2.24943e-005	0	
-4.4715e-006	-2.25096e-005	0	
-4.06409e-006	-2.253e-005	0	
-3.65828e-006	-2.25502e-005	0	
-3.25167e-006	-2.25711e-005	0	
-2.84591e-006	-2.25902e-005	0	
-2.44196e-006	-2.26103e-005	0	
-2.03846e-006	-2.26308e-005	0	
-1.63677e-006	-2.26494e-005	0	
-1.23684e-006	-2.26646e-005	0	
-8.44009e-007	-2.26735e-005	0	
-4.54103e-007	-2.26762e-005	0	
-2.37172e-018	-5.12157e-018	0	
-3.04853e-007	-2.0223e-007	0	
-6.64751e-007	-4.08667e-007	0	
-1.01589e-006	-6.1689e-007	0	
-1.36026e-006	-8.41794e-007	0	
-1.71017e-006	-1.09736e-006	0	
-2.057e-006	-1.37946e-006	0	
-2.40264e-006	-1.68591e-006	0	
-2.74979e-006	-2.0323e-006	0	
-3.06777e-006	-2.38631e-006	0	
-3.36634e-006	-2.75483e-006	0	
-3.65486e-006	-3.14916e-006	0	
-3.9239e-006	-3.55324e-006	0	
-4.16962e-006	-3.95757e-006	0	
-4.39283e-006	-4.36725e-006	0	
-4.6001e-006	-4.78191e-006	0	
-4.79544e-006	-5.19914e-006	0	
-4.97881e-006	-5.61905e-006	0	
-5.15649e-006	-6.03922e-006	0	
-5.33316e-006	-6.4584e-006	0	
-5.51244e-006	-6.87598e-006	0	
-5.70026e-006	-7.29197e-006	0	
-5.88908e-006	-7.70375e-006	0	
-6.081e-006	-8.11719e-006	0	
-6.27118e-006	-8.52552e-006	0	
-6.45454e-006	-8.93636e-006	0	
-6.62944e-006	-9.3448e-006	0	
-6.79506e-006	-9.75717e-006	0	
-6.95084e-006	-1.01709e-005	0	
-7.10043e-006	-1.05831e-005	0	
-7.24399e-006	-1.09957e-005	0	
-7.38176e-006	-1.14061e-005	0	
-7.51711e-006	-1.18169e-005	0	
-7.65245e-006	-1.2229e-005	0	
-7.78843e-006	-1.26392e-005	0	
-7.92159e-006	-1.30497e-005	0	
-8.04744e-006	-1.34552e-005	0	
-8.16842e-006	-1.38569e-005	0	
-8.27918e-006	-1.42505e-005	0	
-8.3785e-006	-1.46391e-005	0	
-8.47219e-006	-1.50207e-005	0	
-8.55862e-006	-1.53963e-005	0	
-8.63831e-006	-1.57602e-005	0	
-8.71481e-006	-1.61183e-005	0	
-8.78828e-006	-1.64659e-005	0	
-8.86432e-006	-1.68099e-005	0	
-8.94175e-006	-1.71466e-005	0	
-9.01901e-006	-1.74796e-005	0	
-9.09311e-006	-1.78033e-005	0	
-9.16793e-006	-1.81216e-005	0	
-9.23805e-006	-1.8431e-005	0	
-9.30199e-006	-1.87336e-005	0	
-9.36335e-006	-1.90223e-005	0	
-9.41868e-006	-1.93057e-005	0	
-9.47429e-006	-1.95698e-005	0	
-9.53205e-006	-1.98267e-005	0	
-9.58874e-006	-2.00651e-005	0	
-9.65021e-006	-2.02993e-005	0	
-9.71071e-006	-2.05142e-005	0	
-9.76657e-006	-2.07269e-005	0	
-9.82122e-006	-2.09228e-005	0	
-9.87438e-006	-2.11136e-005	0	
-9.92081e-006	-2.12888e-005	0	
-9.96115e-006	-2.14546e-005	0	
-9.99393e-006	-2.16105e-005	0	
-1.00214e-005	-2.1758e-005	0	
-1.00404e-005	-2.18924e-005	0	
-1.00487e-005	-2.20155e-005	0	
-1.00483e-005	-2.2127e-005	0	
-1.00297e-005	-2.22322e-005	0	
-9.99638e-006	-2.23252e-005	0	
-9.94283e-006	-2.24112e-005	0	
-9.86133e-006	-2.24868e-005	0	
-9.75107e-006	-2.25565e-005	0	
-9.61542e-006	-2.26121e-005	0	
-9.44973e-006	-2.26647e-005	0	
-9.25284e-006	-2.27072e-005	0	
-9.02359e-006	-2.27442e-005	0	
-8.76874e-006	-2.27672e-005	0	
-8.49037e-006	-2.27854e-005	0	
-8.19331e-006	-2.27953e-005	0	
-7.87698e-006	-2.2803e-005	0	
-7.5441e-006	-2.28055e-005	0	
-7.19716e-006	-2.28073e-005	0	
-6.83717e-006	-2.28089e-005	0	
-6.46656e-006	-2.28158e-005	0	
-6.07967e-006	-2.28235e-005	0	
-5.68223e-006	-2.2834e-005	0	
-5.28191e-006	-2.28481e-005	0	
-4.87596e-006	-2.28623e-005	0	
-4.46525e-006	-2.28802e-005	0	
-4.05308e-006	-2.28976e-005	0	
-3.64506e-006	-2.29209e-005	0	
-3.23725e-006	-2.29413e-005	0	
-2.82983e-006	-2.29642e-005	0	
-2.42444e-006	-2.29839e-005	0	
-2.02018e-006	-2.30049e-005	0	
-1.62069e-006	-2.30232e-005	0	
-1.22584e-006	-2.30388e-005	0	
-8.38404e-007	-2.30494e-005	0	
-4.6414e-007	-2.30527e-005	0	
-3.05229e-018	-5.48498e-018	0	
-2.80034e-007	-1.50271e-007	0	
-6.63706e-007	-3.27092e-007	0	
-1.01226e-006	-5.30034e-007	0	
-1.34809e-006	-7.51353e-007	0	
-1.67333e-006	-9.856e-007	0	
-1.99349e-006	-1.23974e-006	0	
-2.31352e-006	-1.52346e-006	0	
-2.63744e-006	-1.85772e-006	0	
-2.94248e-006	-2.21082e-006	0	
-3.22517e-006	-2.57244e-006	0	
-3.49956e-006	-2.95459e-006	0	
-3.76062e-006	-3.35742e-006	0	
-3.99995e-006	-3.7644e-006	0	
-4.2201e-006	-4.18052e-006	0	
-4.42649e-006	-4.59924e-006	0	
-4.62124e-006	-5.02353e-006	0	
-4.80605e-006	-5.44793e-006	0	
-4.98509e-006	-5.87637e-006	0	
-5.16387e-006	-6.29819e-006	0	
-5.34583e-006	-6.72404e-006	0	
-5.53115e-006	-7.14596e-006	0	
-5.72136e-006	-7.56839e-006	0	
-5.91039e-006	-7.98833e-006	0	
-6.09839e-006	-8.40963e-006	0	
-6.2807e-006	-8.82738e-006	0	
-6.45223e-006	-9.24752e-006	0	
-6.61418e-006	-9.66749e-006	0	
-6.76902e-006	-1.00863e-005	0	
-6.91555e-006	-1.05084e-005	0	
-7.05731e-006	-1.09289e-005	0	
-7.19422e-006	-1.13511e-005	0	
-7.32801e-006	-1.17726e-005	0	
-7.46045e-006	-1.21913e-005	0	
-7.59619e-006	-1.26108e-005	0	
-7.72769e-006	-1.30273e-005	0	
-7.85607e-006	-1.34431e-005	0	
-7.97957e-006	-1.38541e-005	0	
-8.09355e-006	-1.42602e-005	0	
-8.19738e-006	-1.46582e-005	0	
-8.29516e-006	-1.50498e-005	0	
-8.38745e-006	-1.54319e-005	0	