# vtk DataFile Version 4.1
vtk output
ASCII
DATASET UNSTRUCTURED_GRID

POINTS	30401	float
0	0	0	
0	1	0	
0	2	0	
0	3	0	
0	4	0	
0	5	0	
0	6	0	
0	7	0	
0	8	0	
0	9	0	
0	10	0	
0	11	0	
0	12	0	
0	13	0	
0	14	0	
0	15	0	
0	16	0	
0	17	0	
0	18	0	
0	19	0	
0	20	0	
0	21	0	
0	22	0	
0	23	0	
0	24	0	
0	25	0	
0	26	0	
0	27	0	
0	28	0	
0	29	0	
0	30	0	
0	31	0	
0	32	0	
0	33	0	
0	34	0	
0	35	0	
0	36	0	
0	37	0	
0	38	0	
0	39	0	
0	40	0	
0	41	0	
0	42	0	
0	43	0	
0	44	0	
0	45	0	
0	46	0	
0	47	0	
0	48	0	
0	49	0	
0	50	0	
0	51	0	
0	52	0	
0	53	0	
0	54	0	
0	55	0	
0	56	0	
0	57	0	
0	58	0	
0	59	0	
0	60	0	
0	61	0	
0	62	0	
0	63	0	
0	64	0	
0	65	0	
0	66	0	
0	67	0	
0	68	0	
0	69	0	
0	70	0	
0	71	0	
0	72	0	
0	73	0	
0	74	0	
0	75	0	
0	76	0	
0	77	0	
0	78	0	
0	79	0	
0	80	0	
0	81	0	
0	82	0	
0	83	0	
0	84	0	
0	85	0	
0	86	0	
0	87	0	
0	88	0	
0	89	0	
0	90	0	
0	91	0	
0	92	0	
0	93	0	
0	94	0	
0	95	0	
0	96	0	
0	97	0	
0	98	0	
0	99	0	
0	100	0	
1	0	0	
1	1	0	
1	2	0	
1	3	0	
1	4	0	
1	5	0	
1	6	0	
1	7	0	
1	8	0	
1	9	0	
1	10	0	
1	11	0	
1	12	0	
1	13	0	
1	14	0	
1	15	0	
1	16	0	
1	17	0	
1	18	0	
1	19	0	
1	20	0	
1	21	0	
1	22	0	
1	23	0	
1	24	0	
1	25	0	
1	26	0	
1	27	0	
1	28	0	
1	29	0	
1	30	0	
1	31	0	
1	32	0	
1	33	0	
1	34	0	
1	35	0	
1	36	0	
1	37	0	
1	38	0	
1	39	0	
1	40	0	
1	41	0	
1	42	0	
1	43	0	
1	44	0	
1	45	0	
1	46	0	
1	47	0	
1	48	0	
1	49	0	
1	50	0	
1	51	0	
1	52	0	
1	53	0	
1	54	0	
1	55	0	
1	56	0	
1	57	0	
1	58	0	
1	59	0	
1	60	0	
1	61	0	
1	62	0	
1	63	0	
1	64	0	
1	65	0	
1	66	0	
1	67	0	
1	68	0	
1	69	0	
1	70	0	
1	71	0	
1	72	0	
1	73	0	
1	74	0	
1	75	0	
1	76	0	
1	77	0	
1	78	0	
1	79	0	
1	80	0	
1	81	0	
1	82	0	
1	83	0	
1	84	0	
1	85	0	
1	86	0	
1	87	0	
1	88	0	
1	89	0	
1	90	0	
1	91	0	
1	92	0	
1	93	0	
1	94	0	
1	95	0	
1	96	0	
1	97	0	
1	98	0	
1	99	0	
1	100	0	
2	0	0	
2	1	0	
2	2	0	
2	3	0	
2	4	0	
2	5	0	
2	6	0	
2	7	0	
2	8	0	
2	9	0	
2	10	0	
2	11	0	
2	12	0	
2	13	0	
2	14	0	
2	15	0	
2	16	0	
2	17	0	
2	18	0	
2	19	0	
2	20	0	
2	21	0	
2	22	0	
2	23	0	
2	24	0	
2	25	0	
2	26	0	
2	27	0	
2	28	0	
2	29	0	
2	30	0	
2	31	0	
2	32	0	
2	33	0	
2	34	0	
2	35	0	
2	36	0	
2	37	0	
2	38	0	
2	39	0	
2	40	0	
2	41	0	
2	42	0	
2	43	0	
2	44	0	
2	45	0	
2	46	0	
2	47	0	
2	48	0	
2	49	0	
2	50	0	
2	51	0	
2	52	0	
2	53	0	
2	54	0	
2	55	0	
2	56	0	
2	57	0	
2	58	0	
2	59	0	
2	60	0	
2	61	0	
2	62	0	
2	63	0	
2	64	0	
2	65	0	
2	66	0	
2	67	0	
2	68	0	
2	69	0	
2	70	0	
2	71	0	
2	72	0	
2	73	0	
2	74	0	
2	75	0	
2	76	0	
2	77	0	
2	78	0	
2	79	0	
2	80	0	
2	81	0	
2	82	0	
2	83	0	
2	84	0	
2	85	0	
2	86	0	
2	87	0	
2	88	0	
2	89	0	
2	90	0	
2	91	0	
2	92	0	
2	93	0	
2	94	0	
2	95	0	
2	96	0	
2	97	0	
2	98	0	
2	99	0	
2	100	0	
3	0	0	
3	1	0	
3	2	0	
3	3	0	
3	4	0	
3	5	0	
3	6	0	
3	7	0	
3	8	0	
3	9	0	
3	10	0	
3	11	0	
3	12	0	
3	13	0	
3	14	0	
3	15	0	
3	16	0	
3	17	0	
3	18	0	
3	19	0	
3	20	0	
3	21	0	
3	22	0	
3	23	0	
3	24	0	
3	25	0	
3	26	0	
3	27	0	
3	28	0	
3	29	0	
3	30	0	
3	31	0	
3	32	0	
3	33	0	
3	34	0	
3	35	0	
3	36	0	
3	37	0	
3	38	0	
3	39	0	
3	40	0	
3	41	0	
3	42	0	
3	43	0	
3	44	0	
3	45	0	
3	46	0	
3	47	0	
3	48	0	
3	49	0	
3	50	0	
3	51	0	
3	52	0	
3	53	0	
3	54	0	
3	55	0	
3	56	0	
3	57	0	
3	58	0	
3	59	0	
3	60	0	
3	61	0	
3	62	0	
3	63	0	
3	64	0	
3	65	0	
3	66	0	
3	67	0	
3	68	0	
3	69	0	
3	70	0	
3	71	0	
3	72	0	
3	73	0	
3	74	0	
3	75	0	
3	76	0	
3	77	0	
3	78	0	
3	79	0	
3	80	0	
3	81	0	
3	82	0	
3	83	0	
3	84	0	
3	85	0	
3	86	0	
3	87	0	
3	88	0	
3	89	0	
3	90	0	
3	91	0	
3	92	0	
3	93	0	
3	94	0	
3	95	0	
3	96	0	
3	97	0	
3	98	0	
3	99	0	
3	100	0	
4	0	0	
4	1	0	
4	2	0	
4	3	0	
4	4	0	
4	5	0	
4	6	0	
4	7	0	
4	8	0	
4	9	0	
4	10	0	
4	11	0	
4	12	0	
4	13	0	
4	14	0	
4	15	0	
4	16	0	
4	17	0	
4	18	0	
4	19	0	
4	20	0	
4	21	0	
4	22	0	
4	23	0	
4	24	0	
4	25	0	
4	26	0	
4	27	0	
4	28	0	
4	29	0	
4	30	0	
4	31	0	
4	32	0	
4	33	0	
4	34	0	
4	35	0	
4	36	0	
4	37	0	
4	38	0	
4	39	0	
4	40	0	
4	41	0	
4	42	0	
4	43	0	
4	44	0	
4	45	0	
4	46	0	
4	47	0	
4	48	0	
4	49	0	
4	50	0	
4	51	0	
4	52	0	
4	53	0	
4	54	0	
4	55	0	
4	56	0	
4	57	0	
4	58	0	
4	59	0	
4	60	0	
4	61	0	
4	62	0	
4	63	0	
4	64	0	
4	65	0	
4	66	0	
4	67	0	
4	68	0	
4	69	0	
4	70	0	
4	71	0	
4	72	0	
4	73	0	
4	74	0	
4	75	0	
4	76	0	
4	77	0	
4	78	0	
4	79	0	
4	80	0	
4	81	0	
4	82	0	
4	83	0	
4	84	0	
4	85	0	
4	86	0	
4	87	0	
4	88	0	
4	89	0	
4	90	0	
4	91	0	
4	92	0	
4	93	0	
4	94	0	
4	95	0	
4	96	0	
4	97	0	
4	98	0	
4	99	0	
4	100	0	
5	0	0	
5	1	0	
5	2	0	
5	3	0	
5	4	0	
5	5	0	
5	6	0	
5	7	0	
5	8	0	
5	9	0	
5	10	0	
5	11	0	
5	12	0	
5	13	0	
5	14	0	
5	15	0	
5	16	0	
5	17	0	
5	18	0	
5	19	0	
5	20	0	
5	21	0	
5	22	0	
5	23	0	
5	24	0	
5	25	0	
5	26	0	
5	27	0	
5	28	0	
5	29	0	
5	30	0	
5	31	0	
5	32	0	
5	33	0	
5	34	0	
5	35	0	
5	36	0	
5	37	0	
5	38	0	
5	39	0	
5	40	0	
5	41	0	
5	42	0	
5	43	0	
5	44	0	
5	45	0	
5	46	0	
5	47	0	
5	48	0	
5	49	0	
5	50	0	
5	51	0	
5	52	0	
5	53	0	
5	54	0	
5	55	0	
5	56	0	
5	57	0	
5	58	0	
5	59	0	
5	60	0	
5	61	0	
5	62	0	
5	63	0	
5	64	0	
5	65	0	
5	66	0	
5	67	0	
5	68	0	
5	69	0	
5	70	0	
5	71	0	
5	72	0	
5	73	0	
5	74	0	
5	75	0	
5	76	0	
5	77	0	
5	78	0	
5	79	0	
5	80	0	
5	81	0	
5	82	0	
5	83	0	
5	84	0	
5	85	0	
5	86	0	
5	87	0	
5	88	0	
5	89	0	
5	90	0	
5	91	0	
5	92	0	
5	93	0	
5	94	0	
5	95	0	
5	96	0	
5	97	0	
5	98	0	
5	99	0	
5	100	0	
6	0	0	
6	1	0	
6	2	0	
6	3	0	
6	4	0	
6	5	0	
6	6	0	
6	7	0	
6	8	0	
6	9	0	
6	10	0	
6	11	0	
6	12	0	
6	13	0	
6	14	0	
6	15	0	
6	16	0	
6	17	0	
6	18	0	
6	19	0	
6	20	0	
6	21	0	
6	22	0	
6	23	0	
6	24	0	
6	25	0	
6	26	0	
6	27	0	
6	28	0	
6	29	0	
6	30	0	
6	31	0	
6	32	0	
6	33	0	
6	34	0	
6	35	0	
6	36	0	
6	37	0	
6	38	0	
6	39	0	
6	40	0	
6	41	0	
6	42	0	
6	43	0	
6	44	0	
6	45	0	
6	46	0	
6	47	0	
6	48	0	
6	49	0	
6	50	0	
6	51	0	
6	52	0	
6	53	0	
6	54	0	
6	55	0	
6	56	0	
6	57	0	
6	58	0	
6	59	0	
6	60	0	
6	61	0	
6	62	0	
6	63	0	
6	64	0	
6	65	0	
6	66	0	
6	67	0	
6	68	0	
6	69	0	
6	70	0	
6	71	0	
6	72	0	
6	73	0	
6	74	0	
6	75	0	
6	76	0	
6	77	0	
6	78	0	
6	79	0	
6	80	0	
6	81	0	
6	82	0	
6	83	0	
6	84	0	
6	85	0	
6	86	0	
6	87	0	
6	88	0	
6	89	0	
6	90	0	
6	91	0	
6	92	0	
6	93	0	
6	94	0	
6	95	0	
6	96	0	
6	97	0	
6	98	0	
6	99	0	
6	100	0	
7	0	0	
7	1	0	
7	2	0	
7	3	0	
7	4	0	
7	5	0	
7	6	0	
7	7	0	
7	8	0	
7	9	0	
7	10	0	
7	11	0	
7	12	0	
7	13	0	
7	14	0	
7	15	0	
7	16	0	
7	17	0	
7	18	0	
7	19	0	
7	20	0	
7	21	0	
7	22	0	
7	23	0	
7	24	0	
7	25	0	
7	26	0	
7	27	0	
7	28	0	
7	29	0	
7	30	0	
7	31	0	
7	32	0	
7	33	0	
7	34	0	
7	35	0	
7	36	0	
7	37	0	
7	38	0	
7	39	0	
7	40	0	
7	41	0	
7	42	0	
7	43	0	
7	44	0	
7	45	0	
7	46	0	
7	47	0	
7	48	0	
7	49	0	
7	50	0	
7	51	0	
7	52	0	
7	53	0	
7	54	0	
7	55	0	
7	56	0	
7	57	0	
7	58	0	
7	59	0	
7	60	0	
7	61	0	
7	62	0	
7	63	0	
7	64	0	
7	65	0	
7	66	0	
7	67	0	
7	68	0	
7	69	0	
7	70	0	
7	71	0	
7	72	0	
7	73	0	
7	74	0	
7	75	0	
7	76	0	
7	77	0	
7	78	0	
7	79	0	
7	80	0	
7	81	0	
7	82	0	
7	83	0	
7	84	0	
7	85	0	
7	86	0	
7	87	0	
7	88	0	
7	89	0	
7	90	0	
7	91	0	
7	92	0	
7	93	0	
7	94	0	
7	95	0	
7	96	0	
7	97	0	
7	98	0	
7	99	0	
7	100	0	
8	0	0	
8	1	0	
8	2	0	
8	3	0	
8	4	0	
8	5	0	
8	6	0	
8	7	0	
8	8	0	
8	9	0	
8	10	0	
8	11	0	
8	12	0	
8	13	0	
8	14	0	
8	15	0	
8	16	0	
8	17	0	
8	18	0	
8	19	0	
8	20	0	
8	21	0	
8	22	0	
8	23	0	
8	24	0	
8	25	0	
8	26	0	
8	27	0	
8	28	0	
8	29	0	
8	30	0	
8	31	0	
8	32	0	
8	33	0	
8	34	0	
8	35	0	
8	36	0	
8	37	0	
8	38	0	
8	39	0	
8	40	0	
8	41	0	
8	42	0	
8	43	0	
8	44	0	
8	45	0	
8	46	0	
8	47	0	
8	48	0	
8	49	0	
8	50	0	
8	51	0	
8	52	0	
8	53	0	
8	54	0	
8	55	0	
8	56	0	
8	57	0	
8	58	0	
8	59	0	
8	60	0	
8	61	0	
8	62	0	
8	63	0	
8	64	0	
8	65	0	
8	66	0	
8	67	0	
8	68	0	
8	69	0	
8	70	0	
8	71	0	
8	72	0	
8	73	0	
8	74	0	
8	75	0	
8	76	0	
8	77	0	
8	78	0	
8	79	0	
8	80	0	
8	81	0	
8	82	0	
8	83	0	
8	84	0	
8	85	0	
8	86	0	
8	87	0	
8	88	0	
8	89	0	
8	90	0	
8	91	0	
8	92	0	
8	93	0	
8	94	0	
8	95	0	
8	96	0	
8	97	0	
8	98	0	
8	99	0	
8	100	0	
9	0	0	
9	1	0	
9	2	0	
9	3	0	
9	4	0	
9	5	0	
9	6	0	
9	7	0	
9	8	0	
9	9	0	
9	10	0	
9	11	0	
9	12	0	
9	13	0	
9	14	0	
9	15	0	
9	16	0	
9	17	0	
9	18	0	
9	19	0	
9	20	0	
9	21	0	
9	22	0	
9	23	0	
9	24	0	
9	25	0	
9	26	0	
9	27	0	
9	28	0	
9	29	0	
9	30	0	
9	31	0	
9	32	0	
9	33	0	
9	34	0	
9	35	0	
9	36	0	
9	37	0	
9	38	0	
9	39	0	
9	40	0	
9	41	0	
9	42	0	
9	43	0	
9	44	0	
9	45	0	
9	46	0	
9	47	0	
9	48	0	
9	49	0	
9	50	0	
9	51	0	
9	52	0	
9	53	0	
9	54	0	
9	55	0	
9	56	0	
9	57	0	
9	58	0	
9	59	0	
9	60	0	
9	61	0	
9	62	0	
9	63	0	
9	64	0	
9	65	0	
9	66	0	
9	67	0	
9	68	0	
9	69	0	
9	70	0	
9	71	0	
9	72	0	
9	73	0	
9	74	0	
9	75	0	
9	76	0	
9	77	0	
9	78	0	
9	79	0	
9	80	0	
9	81	0	
9	82	0	
9	83	0	
9	84	0	
9	85	0	
9	86	0	
9	87	0	
9	88	0	
9	89	0	
9	90	0	
9	91	0	
9	92	0	
9	93	0	
9	94	0	
9	95	0	
9	96	0	
9	97	0	
9	98	0	
9	99	0	
9	100	0	
10	0	0	
10	1	0	
10	2	0	
10	3	0	
10	4	0	
10	5	0	
10	6	0	
10	7	0	
10	8	0	
10	9	0	
10	10	0	
10	11	0	
10	12	0	
10	13	0	
10	14	0	
10	15	0	
10	16	0	
10	17	0	
10	18	0	
10	19	0	
10	20	0	
10	21	0	
10	22	0	
10	23	0	
10	24	0	
10	25	0	
10	26	0	
10	27	0	
10	28	0	
10	29	0	
10	30	0	
10	31	0	
10	32	0	
10	33	0	
10	34	0	
10	35	0	
10	36	0	
10	37	0	
10	38	0	
10	39	0	
10	40	0	
10	41	0	
10	42	0	
10	43	0	
10	44	0	
10	45	0	
10	46	0	
10	47	0	
10	48	0	
10	49	0	
10	50	0	
10	51	0	
10	52	0	
10	53	0	
10	54	0	
10	55	0	
10	56	0	
10	57	0	
10	58	0	
10	59	0	
10	60	0	
10	61	0	
10	62	0	
10	63	0	
10	64	0	
10	65	0	
10	66	0	
10	67	0	
10	68	0	
10	69	0	
10	70	0	
10	71	0	
10	72	0	
10	73	0	
10	74	0	
10	75	0	
10	76	0	
10	77	0	
10	78	0	
10	79	0	
10	80	0	
10	81	0	
10	82	0	
10	83	0	
10	84	0	
10	85	0	
10	86	0	
10	87	0	
10	88	0	
10	89	0	
10	90	0	
10	91	0	
10	92	0	
10	93	0	
10	94	0	
10	95	0	
10	96	0	
10	97	0	
10	98	0	
10	99	0	
10	100	0	
11	0	0	
11	1	0	
11	2	0	
11	3	0	
11	4	0	
11	5	0	
11	6	0	
11	7	0	
11	8	0	
11	9	0	
11	10	0	
11	11	0	
11	12	0	
11	13	0	
11	14	0	
11	15	0	
11	16	0	
11	17	0	
11	18	0	
11	19	0	
11	20	0	
11	21	0	
11	22	0	
11	23	0	
11	24	0	
11	25	0	
11	26	0	
11	27	0	
11	28	0	
11	29	0	
11	30	0	
11	31	0	
11	32	0	
11	33	0	
11	34	0	
11	35	0	
11	36	0	
11	37	0	
11	38	0	
11	39	0	
11	40	0	
11	41	0	
11	42	0	
11	43	0	
11	44	0	
11	45	0	
11	46	0	
11	47	0	
11	48	0	
11	49	0	
11	50	0	
11	51	0	
11	52	0	
11	53	0	
11	54	0	
11	55	0	
11	56	0	
11	57	0	
11	58	0	
11	59	0	
11	60	0	
11	61	0	
11	62	0	
11	63	0	
11	64	0	
11	65	0	
11	66	0	
11	67	0	
11	68	0	
11	69	0	
11	70	0	
11	71	0	
11	72	0	
11	73	0	
11	74	0	
11	75	0	
11	76	0	
11	77	0	
11	78	0	
11	79	0	
11	80	0	
11	81	0	
11	82	0	
11	83	0	
11	84	0	
11	85	0	
11	86	0	
11	87	0	
11	88	0	
11	89	0	
11	90	0	
11	91	0	
11	92	0	
11	93	0	
11	94	0	
11	95	0	
11	96	0	
11	97	0	
11	98	0	
11	99	0	
11	100	0	
12	0	0	
12	1	0	
12	2	0	
12	3	0	
12	4	0	
12	5	0	
12	6	0	
12	7	0	
12	8	0	
12	9	0	
12	10	0	
12	11	0	
12	12	0	
12	13	0	
[...]
POINT_DATA	30401
VECTORS d float
-1.29755e-017	-2.34982e-017	0	
-6.9037e-007	-7.27824e-007	0	
-1.20664e-006	-1.17084e-006	0	
-1.68373e-006	-1.5213e-006	0	
-2.13453e-006	-1.81032e-006	0	
-2.56584e-006	-2.04637e-006	0	
-2.97398e-006	-2.23832e-006	0	
-3.35614e-006	-2.39212e-006	0	
-3.70967e-006	-2.51282e-006	0	
-4.03244e-006	-2.60375e-006	0	
-4.32269e-006	-2.66634e-006	0	
-4.56901e-006	-2.69166e-006	0	
-4.75194e-006	-2.69107e-006	0	
-5.01497e-006	-2.80498e-006	0	
-5.18391e-006	-2.85497e-006	0	
-5.33412e-006	-2.91702e-006	0	
-5.49247e-006	-2.9887e-006	0	
-5.63105e-006	-3.08239e-006	0	
-5.76777e-006	-3.19576e-006	0	
-5.89982e-006	-3.3077e-006	0	
-6.02073e-006	-3.41647e-006	0	
-6.13078e-006	-3.53191e-006	0	
-6.22647e-006	-3.65107e-006	0	
-6.30643e-006	-3.76762e-006	0	
-6.37352e-006	-3.88121e-006	0	
-6.42888e-006	-3.99616e-006	0	
-6.47154e-006	-4.11891e-006	0	
-6.50517e-006	-4.24614e-006	0	
-6.53192e-006	-4.37395e-006	0	
-6.54792e-006	-4.50251e-006	0	
-6.55209e-006	-4.63499e-006	0	
-6.54626e-006	-4.76993e-006	0	
-6.53202e-006	-4.90708e-006	0	
-6.50973e-006	-5.04652e-006	0	
-6.47971e-006	-5.18834e-006	0	
-6.44233e-006	-5.33199e-006	0	
-6.39744e-006	-5.47752e-006	0	
-6.34469e-006	-5.62411e-006	0	
-6.2836e-006	-5.77114e-006	0	
-6.2151e-006	-5.91895e-006	0	
-6.14097e-006	-6.06967e-006	0	
-6.06151e-006	-6.22352e-006	0	
-5.97621e-006	-6.37983e-006	0	
-5.88531e-006	-6.53723e-006	0	
-5.78959e-006	-6.69555e-006	0	
-5.68973e-006	-6.85464e-006	0	
-5.58635e-006	-7.01429e-006	0	
-5.47992e-006	-7.17421e-006	0	
-5.37112e-006	-7.33414e-006	0	
-5.26045e-006	-7.49397e-006	0	
-5.14818e-006	-7.6534e-006	0	
-5.03465e-006	-7.81168e-006	0	
-4.91992e-006	-7.96823e-006	0	
-4.80415e-006	-8.12266e-006	0	
-4.68773e-006	-8.27465e-006	0	
-4.57093e-006	-8.42396e-006	0	
-4.45387e-006	-8.5705e-006	0	
-4.33639e-006	-8.71368e-006	0	
-4.21836e-006	-8.85301e-006	0	
-4.0997e-006	-8.98806e-006	0	
-3.98014e-006	-9.11837e-006	0	
-3.85942e-006	-9.24371e-006	0	
-3.73738e-006	-9.36384e-006	0	
-3.61373e-006	-9.47847e-006	0	
-3.4881e-006	-9.58744e-006	0	
-3.36029e-006	-9.69058e-006	0	
-3.2298e-006	-9.78777e-006	0	
-3.09635e-006	-9.87897e-006	0	
-2.95967e-006	-9.96409e-006	0	
-2.81935e-006	-1.00431e-005	0	
-2.67512e-006	-1.01159e-005	0	
-2.52658e-006	-1.01827e-005	0	
-2.37338e-006	-1.02433e-005	0	
-2.21528e-006	-1.0298e-005	0	
-2.05189e-006	-1.03468e-005	0	
-1.88295e-006	-1.03899e-005	0	
-1.7083e-006	-1.04273e-005	0	
-1.52753e-006	-1.04595e-005	0	
-1.34043e-006	-1.04864e-005	0	
-1.14691e-006	-1.05085e-005	0	
-9.46741e-007	-1.05258e-005	0	
-7.39659e-007	-1.05388e-005	0	
-5.25696e-007	-1.05477e-005	0	
-3.04795e-007	-1.0553e-005	0	
-7.68318e-008	-1.05549e-005	0	
1.58063e-007	-1.05538e-005	0	
3.99776e-007	-1.05503e-005	0	
6.48275e-007	-1.05446e-005	0	
9.0321e-007	-1.05372e-005	0	
1.16435e-006	-1.05286e-005	0	
1.43138e-006	-1.05191e-005	0	
1.70388e-006	-1.05093e-005	0	
1.98132e-006	-1.04995e-005	0	
2.26318e-006	-1.04901e-005	0	
2.54877e-006	-1.04816e-005	0	
2.8374e-006	-1.04742e-005	0	
3.1282e-006	-1.04682e-005	0	
3.42033e-006	-1.04639e-005	0	
3.71293e-006	-1.04611e-005	0	
4.00509e-006	-1.04596e-005	0	
4.29696e-006	-1.04588e-005	0	
-3.76683e-018	-7.94687e-018	0	
-5.17844e-007	-4.00724e-007	0	
-1.04543e-006	-7.88354e-007	0	
-1.54774e-006	-1.1371e-006	0	
-2.02146e-006	-1.43011e-006	0	
-2.47179e-006	-1.67829e-006	0	
-2.89642e-006	-1.88741e-006	0	
-3.29282e-006	-2.06287e-006	0	
-3.65873e-006	-2.20907e-006	0	
-3.99261e-006	-2.32979e-006	0	
-4.29261e-006	-2.42852e-006	0	
-4.55245e-006	-2.50944e-006	0	
-4.75842e-006	-2.58436e-006	0	
-4.99136e-006	-2.68619e-006	0	
-5.17147e-006	-2.71412e-006	0	
-5.28931e-006	-2.71391e-006	0	
-5.45731e-006	-2.82759e-006	0	
-5.57911e-006	-2.93593e-006	0	
-5.71814e-006	-3.059e-006	0	
-5.84919e-006	-3.18214e-006	0	
-5.96934e-006	-3.30743e-006	0	
-6.07774e-006	-3.43531e-006	0	
-6.17344e-006	-3.56681e-006	0	
-6.25477e-006	-3.69558e-006	0	
-6.32204e-006	-3.8207e-006	0	
-6.37526e-006	-3.94961e-006	0	
-6.41579e-006	-4.08445e-006	0	
-6.44884e-006	-4.21764e-006	0	
-6.47507e-006	-4.35384e-006	0	
-6.48994e-006	-4.4936e-006	0	
-6.49298e-006	-4.63512e-006	0	
-6.48623e-006	-4.77812e-006	0	
-6.47087e-006	-4.92361e-006	0	
-6.44763e-006	-5.07166e-006	0	
-6.4169e-006	-5.22115e-006	0	
-6.37882e-006	-5.37197e-006	0	
-6.33324e-006	-5.52471e-006	0	
-6.28004e-006	-5.67894e-006	0	
-6.21878e-006	-5.83421e-006	0	
-6.14973e-006	-5.98915e-006	0	
-6.07442e-006	-6.14555e-006	0	
-5.99376e-006	-6.30494e-006	0	
-5.90774e-006	-6.46679e-006	0	
-5.81651e-006	-6.62936e-006	0	
-5.72054e-006	-6.79231e-006	0	
-5.62052e-006	-6.95549e-006	0	
-5.51705e-006	-7.11867e-006	0	
-5.41067e-006	-7.28163e-006	0	
-5.30197e-006	-7.44409e-006	0	
-5.19149e-006	-7.60601e-006	0	
-5.07961e-006	-7.76719e-006	0	
-4.9667e-006	-7.9271e-006	0	
-4.85281e-006	-8.0852e-006	0	
-4.73808e-006	-8.24097e-006	0	
-4.6228e-006	-8.394e-006	0	
-4.50716e-006	-8.54415e-006	0	
-4.39136e-006	-8.69149e-006	0	
-4.2754e-006	-8.83554e-006	0	
-4.15913e-006	-8.97584e-006	0	
-4.04233e-006	-9.11203e-006	0	
-3.92478e-006	-9.24369e-006	0	
-3.8062e-006	-9.37056e-006	0	
-3.68642e-006	-9.4924e-006	0	
-3.56508e-006	-9.60907e-006	0	
-3.44184e-006	-9.72031e-006	0	
-3.31645e-006	-9.82604e-006	0	
-3.18845e-006	-9.92616e-006	0	
-3.05753e-006	-1.00206e-005	0	
-2.92341e-006	-1.01092e-005	0	
-2.78563e-006	-1.0192e-005	0	
-2.64393e-006	-1.0269e-005	0	
-2.49794e-006	-1.03402e-005	0	
-2.34726e-006	-1.04056e-005	0	
-2.19162e-006	-1.04653e-005	0	
-2.03069e-006	-1.05194e-005	0	
-1.86417e-006	-1.0568e-005	0	
-1.69178e-006	-1.06113e-005	0	
-1.51324e-006	-1.06494e-005	0	
-1.32833e-006	-1.06825e-005	0	
-1.13685e-006	-1.07108e-005	0	
-9.38594e-007	-1.07347e-005	0	
-7.33351e-007	-1.07542e-005	0	
-5.21074e-007	-1.07697e-005	0	
-3.01695e-007	-1.07816e-005	0	
-7.51314e-008	-1.079e-005	0	
1.58502e-007	-1.07955e-005	0	
3.99149e-007	-1.07983e-005	0	
6.46699e-007	-1.07987e-005	0	
9.0089e-007	-1.07973e-005	0	
1.16151e-006	-1.07942e-005	0	
1.42814e-006	-1.079e-005	0	
1.70037e-006	-1.07849e-005	0	
1.97775e-006	-1.07794e-005	0	
2.25969e-006	-1.07738e-005	0	
2.54552e-006	-1.07683e-005	0	
2.83446e-006	-1.07633e-005	0	
3.1257e-006	-1.07589e-005	0	
3.41832e-006	-1.07554e-005	0	
3.71137e-006	-1.07528e-005	0	
4.00393e-006	-1.07511e-005	0	
4.29537e-006	-1.075e-005	0	
-2.33851e-018	-5.94224e-018	0	
-4.31088e-007	-2.82371e-007	0	
-9.29464e-007	-5.89076e-007	0	
-1.43084e-006	-8.8918e-007	0	
-1.9161e-006	-1.16265e-006	0	
-2.37987e-006	-1.40568e-006	0	
-2.81725e-006	-1.61894e-006	0	
-3.22474e-006	-1.80551e-006	0	
-3.59994e-006	-1.96883e-006	0	
-3.94124e-006	-2.11233e-006	0	
-4.24664e-006	-2.23965e-006	0	
-4.51304e-006	-2.35333e-006	0	
-4.74432e-006	-2.45027e-006	0	
-4.96658e-006	-2.53293e-006	0	
-5.15741e-006	-2.60211e-006	0	
-5.29671e-006	-2.66251e-006	0	
-5.43945e-006	-2.72156e-006	0	
-5.5054e-006	-2.72074e-006	0	
-5.65202e-006	-2.90081e-006	0	
-5.78695e-006	-3.05705e-006	0	
-5.90983e-006	-3.20304e-006	0	
-6.02044e-006	-3.3473e-006	0	
-6.11635e-006	-3.48938e-006	0	
-6.19867e-006	-3.62978e-006	0	
-6.26565e-006	-3.76759e-006	0	
-6.31614e-006	-3.90827e-006	0	
-6.35661e-006	-4.05078e-006	0	
-6.38984e-006	-4.18961e-006	0	
-6.4142e-006	-4.33511e-006	0	
-6.42837e-006	-4.48504e-006	0	
-6.43114e-006	-4.63495e-006	0	
-6.42307e-006	-4.78538e-006	0	
-6.40592e-006	-4.93817e-006	0	
-6.3817e-006	-5.0943e-006	0	
-6.35079e-006	-5.25178e-006	0	
-6.31239e-006	-5.40987e-006	0	
-6.26614e-006	-5.56937e-006	0	
-6.21203e-006	-5.73061e-006	0	
-6.15037e-006	-5.89368e-006	0	
-6.08121e-006	-6.05659e-006	0	
-6.00516e-006	-6.21956e-006	0	
-5.92347e-006	-6.38463e-006	0	
-5.83682e-006	-6.55184e-006	0	
-5.74534e-006	-6.71973e-006	0	
-5.64927e-006	-6.88762e-006	0	
-5.54924e-006	-7.05534e-006	0	
-5.44587e-006	-7.22261e-006	0	
-5.33969e-006	-7.38921e-006	0	
-5.23125e-006	-7.55497e-006	0	
-5.12111e-006	-7.71974e-006	0	
-5.00971e-006	-7.88342e-006	0	
-4.8974e-006	-8.04571e-006	0	
-4.78437e-006	-8.20612e-006	0	
-4.67076e-006	-8.36408e-006	0	
-4.5567e-006	-8.51917e-006	0	
-4.44228e-006	-8.67112e-006	0	
-4.32777e-006	-8.82004e-006	0	
-4.2133e-006	-8.96568e-006	0	
-4.09869e-006	-9.10765e-006	0	
-3.98369e-006	-9.24562e-006	0	
-3.86805e-006	-9.37921e-006	0	
-3.75156e-006	-9.50813e-006	0	
-3.63391e-006	-9.63218e-006	0	
-3.51475e-006	-9.75126e-006	0	
-3.39379e-006	-9.86519e-006	0	
-3.2707e-006	-9.97381e-006	0	
-3.14504e-006	-1.00771e-005	0	
-3.01653e-006	-1.01748e-005	0	
-2.88484e-006	-1.02671e-005	0	
-2.74948e-006	-1.03538e-005	0	
-2.61019e-006	-1.04349e-005	0	
-2.46662e-006	-1.05105e-005	0	
-2.31837e-006	-1.05806e-005	0	
-2.16513e-006	-1.06452e-005	0	
-2.00656e-006	-1.07044e-005	0	
-1.84237e-006	-1.07583e-005	0	
-1.67223e-006	-1.0807e-005	0	
-1.49591e-006	-1.08507e-005	0	
-1.31316e-006	-1.08896e-005	0	
-1.12373e-006	-1.09237e-005	0	
-9.27424e-007	-1.09535e-005	0	
-7.24093e-007	-1.0979e-005	0	
-5.13582e-007	-1.10005e-005	0	
-2.95848e-007	-1.10183e-005	0	
-7.08382e-008	-1.10326e-005	0	
1.61417e-007	-1.10437e-005	0	
4.0084e-007	-1.1052e-005	0	
6.47269e-007	-1.10578e-005	0	
9.005e-007	-1.10614e-005	0	
1.1603e-006	-1.10631e-005	0	
1.42626e-006	-1.10633e-005	0	
1.69795e-006	-1.10622e-005	0	
1.97495e-006	-1.10603e-005	0	
2.25661e-006	-1.10576e-005	0	
2.5423e-006	-1.10547e-005	0	
2.83125e-006	-1.10515e-005	0	
3.12258e-006	-1.10485e-005	0	
3.41541e-006	-1.10458e-005	0	
3.7087e-006	-1.10434e-005	0	
4.00145e-006	-1.10416e-005	0	
4.29256e-006	-1.10402e-005	0	
-2.24757e-018	-5.05874e-018	0	
-3.97409e-007	-2.32892e-007	0	
-8.57525e-007	-4.82628e-007	0	
-1.34315e-006	-7.37459e-007	0	
-1.82901e-006	-9.83092e-007	0	
-2.29923e-006	-1.21111e-006	0	
-2.74434e-006	-1.41932e-006	0	
-3.15868e-006	-1.60879e-006	0	
-3.53933e-006	-1.78163e-006	0	
-3.88495e-006	-1.93992e-006	0	
-4.1948e-006	-2.08508e-006	0	
-4.46927e-006	-2.2167e-006	0	
-4.71405e-006	-2.33289e-006	0	
-4.93554e-006	-2.43613e-006	0	
-5.12963e-006	-2.53024e-006	0	
-5.29062e-006	-2.6093e-006	0	
-5.43005e-006	-2.67284e-006	0	
-5.51446e-006	-2.7167e-006	0	
-5.54906e-006	-2.73975e-006	0	
-5.71955e-006	-2.93595e-006	0	
-5.83655e-006	-3.09988e-006	0	
-5.95958e-006	-3.26052e-006	0	
-6.05299e-006	-3.41411e-006	0	
-6.13796e-006	-3.57045e-006	0	
-6.20617e-006	-3.72109e-006	0	
-6.25479e-006	-3.86958e-006	0	
-6.29505e-006	-4.01638e-006	0	
-6.32763e-006	-4.16425e-006	0	
-6.35002e-006	-4.31548e-006	0	
-6.36345e-006	-4.47351e-006	0	
-6.36572e-006	-4.63387e-006	0	
-6.3569e-006	-4.79447e-006	0	
-6.33801e-006	-4.95479e-006	0	
-6.31254e-006	-5.11627e-006	0	
-6.28154e-006	-5.28e-006	0	
-6.24309e-006	-5.44505e-006	0	
-6.19616e-006	-5.61196e-006	0	
-6.14099e-006	-5.78035e-006	0	
-6.07854e-006	-5.9506e-006	0	
-6.0091e-006	-6.1215e-006	0	
-5.93276e-006	-6.29191e-006	0	
-5.85047e-006	-6.46319e-006	0	
-5.76328e-006	-6.63605e-006	0	
-5.67156e-006	-6.80957e-006	0	
-5.57547e-006	-6.98278e-006	0	
-5.47554e-006	-7.15543e-006	0	
-5.37238e-006	-7.32729e-006	0	
-5.26652e-006	-7.49815e-006	0	
-5.15845e-006	-7.6678e-006	0	
-5.04874e-006	-7.83609e-006	0	
-4.93788e-006	-8.00303e-006	0	
-4.82623e-006	-8.16832e-006	0	
-4.71407e-006	-8.33161e-006	0	
-4.60155e-006	-8.49246e-006	0	
-4.48874e-006	-8.65036e-006	0	
-4.37568e-006	-8.80494e-006	0	
-4.26258e-006	-8.95618e-006	0	
-4.14958e-006	-9.10407e-006	0	
-4.03654e-006	-9.24833e-006	0	
-3.92331e-006	-9.38865e-006	0	
-3.8096e-006	-9.52463e-006	0	
-3.69512e-006	-9.65606e-006	0	
-3.5795e-006	-9.78279e-006	0	
-3.46246e-006	-9.90468e-006	0	
-3.34371e-006	-1.00216e-005	0	
-3.22284e-006	-1.01333e-005	0	
-3.09945e-006	-1.02399e-005	0	
-2.97324e-006	-1.03413e-005	0	
-2.84386e-006	-1.04373e-005	0	
-2.71086e-006	-1.0528e-005	0	
-2.57392e-006	-1.06133e-005	0	
-2.43269e-006	-1.06932e-005	0	
-2.28682e-006	-1.07678e-005	0	
-2.13592e-006	-1.08371e-005	0	
-1.97967e-006	-1.09012e-005	0	
-1.81777e-006	-1.09601e-005	0	
-1.64995e-006	-1.1014e-005	0	
-1.47586e-006	-1.10629e-005	0	
-1.29528e-006	-1.11071e-005	0	
-1.10793e-006	-1.11467e-005	0	
-9.1369e-007	-1.11818e-005	0	
-7.12353e-007	-1.12127e-005	0	
-5.03692e-007	-1.12396e-005	0	
-2.87735e-007	-1.12626e-005	0	
-6.44116e-008	-1.12821e-005	0	
1.66278e-007	-1.12983e-005	0	
4.04248e-007	-1.13115e-005	0	
6.49375e-007	-1.13219e-005	0	
9.01441e-007	-1.13298e-005	0	
1.16012e-006	-1.13356e-005	0	
1.42512e-006	-1.13394e-005	0	
1.69605e-006	-1.13417e-005	0	
1.97238e-006	-1.13425e-005	0	
2.2535e-006	-1.13424e-005	0	
2.53879e-006	-1.13414e-005	0	
2.82748e-006	-1.13398e-005	0	
3.1187e-006	-1.13378e-005	0	
3.41153e-006	-1.13357e-005	0	
3.70496e-006	-1.13336e-005	0	
3.99785e-006	-1.13316e-005	0	
4.28892e-006	-1.13298e-005	0	
-2.17154e-018	-4.39617e-018	0	
-3.74033e-007	-2.03523e-007	0	
-8.08338e-007	-4.20626e-007	0	
-1.27979e-006	-6.4371e-007	0	
-1.76208e-006	-8.63582e-007	0	
-2.23441e-006	-1.07397e-006	0	
-2.68281e-006	-1.27269e-006	0	
-3.09964e-006	-1.46018e-006	0	
-3.48187e-006	-1.63753e-006	0	
-3.82898e-006	-1.80537e-006	0	
-4.1418e-006	-1.96342e-006	0	
-4.42228e-006	-2.11054e-006	0	
-4.67379e-006	-2.2457e-006	0	
-4.89928e-006	-2.36979e-006	0	
-5.09746e-006	-2.48377e-006	0	
-5.26809e-006	-2.58658e-006	0	
-5.41043e-006	-2.67811e-006	0	
-5.5187e-006	-2.75856e-006	0	
-5.57696e-006	-2.82804e-006	0	
-5.62733e-006	-2.89084e-006	0	
-5.70113e-006	-2.94238e-006	0	
-5.89977e-006	-3.18559e-006	0	
-5.98908e-006	-3.36229e-006	0	
-6.07561e-006	-3.51726e-006	0	
-6.14622e-006	-3.67412e-006	0	
-6.19097e-006	-3.83541e-006	0	
-6.23072e-006	-3.98575e-006	0	
-6.26354e-006	-4.14091e-006	0	
-6.28494e-006	-4.29644e-006	0	
-6.29522e-006	-4.46062e-006	0	
-6.29532e-006	-4.63097e-006	0	
-6.28601e-006	-4.80412e-006	0	
-6.26731e-006	-4.97435e-006	0	
-6.24157e-006	-5.13977e-006	0	
-6.21041e-006	-5.30825e-006	0	
-6.17131e-006	-5.47831e-006	0	
-6.12312e-006	-5.65257e-006	0	
-6.06662e-006	-5.82882e-006	0	
-6.00318e-006	-6.00672e-006	0	
-5.93335e-006	-6.18528e-006	0	
-5.85693e-006	-6.36327e-006	0	
-5.77437e-006	-6.54143e-006	0	
-5.68678e-006	-6.72043e-006	0	
-5.59486e-006	-6.89995e-006	0	
-5.49883e-006	-7.07886e-006	0	
-5.39908e-006	-7.25687e-006	0	
-5.2962e-006	-7.43382e-006	0	
-5.19071e-006	-7.60946e-006	0	
-5.08311e-006	-7.78358e-006	0	
-4.9739e-006	-7.95598e-006	0	
-4.86363e-006	-8.12677e-006	0	
-4.75271e-006	-8.2957e-006	0	
-4.64142e-006	-8.46242e-006	0	
-4.52998e-006	-8.62664e-006	0	
-4.41842e-006	-8.78787e-006	0	
-4.3068e-006	-8.94572e-006	0	
-4.19518e-006	-9.1e-006	0	
-4.08368e-006	-9.25078e-006	0	
-3.97229e-006	-9.39786e-006	0	
-3.86085e-006	-9.54098e-006	0	
-3.74904e-006	-9.67983e-006	0	
-3.63652e-006	-9.81419e-006	0	
-3.52294e-006	-9.94396e-006	0	
-3.40801e-006	-1.0069e-005	0	
-3.29139e-006	-1.01891e-005	0	
-3.17268e-006	-1.03042e-005	0	
-3.05154e-006	-1.04143e-005	0	
-2.92757e-006	-1.05193e-005	0	
-2.80042e-006	-1.06191e-005	0	
-2.66972e-006	-1.07138e-005	0	
-2.53511e-006	-1.08033e-005	0	
-2.39624e-006	-1.08875e-005	0	
-2.25267e-006	-1.09665e-005	0	
-2.1041e-006	-1.10404e-005	0	
-1.95021e-006	-1.11091e-005	0	
-1.79066e-006	-1.11729e-005	0	
-1.62513e-006	-1.12316e-005	0	
-1.45332e-006	-1.12855e-005	0	
-1.27499e-006	-1.13346e-005	0	
-1.08985e-006	-1.13791e-005	0	
-8.97753e-007	-1.14192e-005	0	
-6.98483e-007	-1.1455e-005	0	
-4.91857e-007	-1.14866e-005	0	
-2.77796e-007	-1.15144e-005	0	
-5.62968e-008	-1.15385e-005	0	
1.7262e-007	-1.15591e-005	0	
4.08911e-007	-1.15765e-005	0	
6.52483e-007	-1.15908e-005	0	
9.03107e-007	-1.16025e-005	0	
1.16051e-006	-1.16117e-005	0	
1.42433e-006	-1.16186e-005	0	
1.6942e-006	-1.16235e-005	0	
1.96961e-006	-1.16268e-005	0	
2.24999e-006	-1.16286e-005	0	
2.53466e-006	-1.16291e-005	0	
2.82287e-006	-1.16287e-005	0	
3.11383e-006	-1.16275e-005	0	
3.40656e-006	-1.16258e-005	0	
3.70006e-006	-1.16238e-005	0	
3.99316e-006	-1.16216e-005	0	
4.28452e-006	-1.16195e-005	0	
-1.98074e-018	-3.86769e-018	0	
-3.49854e-007	-1.83005e-007	0	
-7.68527e-007	-3.79187e-007	0	
-1.23191e-006	-5.79811e-007	0	
-1.71269e-006	-7.79476e-007	0	
-2.18629e-006	-9.74039e-007	0	
-2.63497e-006	-1.16299e-006	0	
-3.05021e-006	-1.34742e-006	0	
-3.43006e-006	-1.52769e-006	0	
-3.77547e-006	-1.7032e-006	0	
-4.08858e-006	-1.87251e-006	0	
-4.37181e-006	-2.03382e-006	0	
-4.62733e-006	-2.18581e-006	0	
-4.85628e-006	-2.32841e-006	0	
-5.05852e-006	-2.46229e-006	0	
-5.23355e-006	-2.58814e-006	0	
-5.38063e-006	-2.7075e-006	0	
-5.49867e-006	-2.81978e-006	0	
-5.58987e-006	-2.92394e-006	0	
-5.65315e-006	-3.04677e-006	0	
-5.79649e-006	-3.20818e-006	0	
-5.81609e-006	-3.23773e-006	0	
-5.86188e-006	-3.28862e-006	0	
-5.97809e-006	-3.41432e-006	0	
-6.08965e-006	-3.64315e-006	0	
-6.11933e-006	-3.80149e-006	0	
-6.1678e-006	-3.95826e-006	0	
-6.19808e-006	-4.11802e-006	0	
-6.21864e-006	-4.28138e-006	0	
-6.22438e-006	-4.45105e-006	0	
-6.21972e-006	-4.63118e-006	0	
-6.20989e-006	-4.81296e-006	0	
-6.19342e-006	-4.99347e-006	0	
-6.16879e-006	-5.16529e-006	0	
-6.13791e-006	-5.3381e-006	0	
-6.09778e-006	-5.51502e-006	0	
-6.04726e-006	-5.69518e-006	0	
-5.98885e-006	-5.87769e-006	0	
-5.92414e-006	-6.06245e-006	0	
-5.85392e-006	-6.24898e-006	0	
-5.77743e-006	-6.43474e-006	0	
-5.69476e-006	-6.62024e-006	0	
-5.60694e-006	-6.80596e-006	0	
-5.51492e-006	-6.99179e-006	0	
-5.41903e-006	-7.17683e-006	0	
-5.31953e-006	-7.36064e-006	0	
-5.21698e-006	-7.54308e-006	0	
-5.11189e-006	-7.72395e-006	0	
-5.00481e-006	-7.90307e-006	0	
-4.8962e-006	-8.08021e-006	0	
-4.78656e-006	-8.25536e-006	0	
-4.67641e-006	-8.42845e-006	0	
-4.56605e-006	-8.59917e-006	0	
-4.45563e-006	-8.76722e-006	0	
-4.34533e-006	-8.93227e-006	0	
-4.23519e-006	-9.09385e-006	0	
-4.12514e-006	-9.25174e-006	0	
-4.01523e-006	-9.4059e-006	0	
-3.90558e-006	-9.55623e-006	0	
-3.79597e-006	-9.70257e-006	0	
-3.68606e-006	-9.84467e-006	0	
-3.5755e-006	-9.98232e-006	0	
-3.46399e-006	-1.01154e-005	0	
-3.35118e-006	-1.02438e-005	0	
-3.23665e-006	-1.03673e-005	0	
-3.12011e-006	-1.0486e-005	0	
-3.00117e-006	-1.05998e-005	0	
-2.87941e-006	-1.07085e-005	0	
-2.75449e-006	-1.08122e-005	0	
-2.62605e-006	-1.09109e-005	0	
-2.49376e-006	-1.10044e-005	0	
-2.35723e-006	-1.10929e-005	0	
-2.21603e-006	-1.11762e-005	0	
-2.0698e-006	-1.12545e-005	0	
-1.9183e-006	-1.13278e-005	0	
-1.76115e-006	-1.1396e-005	0	
-1.59798e-006	-1.14594e-005	0	
-1.42854e-006	-1.15178e-005	0	
-1.25256e-006	-1.15715e-005	0	
-1.06978e-006	-1.16206e-005	0	
-8.79936e-007	-1.16652e-005	0	
-6.82889e-007	-1.17054e-005	0	
-4.78459e-007	-1.17414e-005	0	
-2.66531e-007	-1.17734e-005	0	
-4.70679e-008	-1.18015e-005	0	
1.79914e-007	-1.18259e-005	0	
4.14341e-007	-1.1847e-005	0	
6.56134e-007	-1.18648e-005	0	
9.05117e-007	-1.18796e-005	0	
1.16098e-006	-1.18916e-005	0	
1.4234e-006	-1.19011e-005	0	
1.69198e-006	-1.19083e-005	0	
1.96627e-006	-1.19134e-005	0	
2.24569e-006	-1.19167e-005	0	
2.52958e-006	-1.19184e-005	0	
2.8172e-006	-1.19189e-005	0	
3.10777e-006	-1.19182e-005	0	
3.40037e-006	-1.19167e-005	0	
3.69395e-006	-1.19146e-005	0	
3.98739e-006	-1.19122e-005	0	
4.27937e-006	-1.19098e-005	0	
-1.67245e-018	-3.27513e-018	0	
-3.18956e-007	-1.63494e-007	0	
-7.29191e-007	-3.40893e-007	0	
-1.19274e-006	-5.22178e-007	0	
-1.67645e-006	-7.08205e-007	0	
-2.15396e-006	-8.92275e-007	0	
-2.60042e-006	-1.07532e-006	0	
-3.01012e-006	-1.25991e-006	0	
-3.38393e-006	-1.44488e-006	0	
-3.72427e-006	-1.62877e-006	0	
-4.0349e-006	-1.80939e-006	0	
-4.31857e-006	-1.98413e-006	0	
-4.5764e-006	-2.15107e-006	0	
-4.80821e-006	-2.30971e-006	0	
-5.01326e-006	-2.46074e-006	0	
-5.19106e-006	-2.6054e-006	0	
-5.34139e-006	-2.74506e-006	0	
-5.46481e-006	-2.88058e-006	0	
-5.5664e-006	-3.01138e-006	0	
-5.65829e-006	-3.13437e-006	0	
-5.77287e-006	-3.25929e-006	0	
-5.82726e-006	-3.40203e-006	0	
-5.9666e-006	-3.61631e-006	0	
-6.04542e-006	-3.69825e-006	0	
-6.02831e-006	-3.71382e-006	0	
-6.02016e-006	-3.74521e-006	0	
-6.10987e-006	-3.94448e-006	0	
-6.12941e-006	-4.10736e-006	0	
-6.15618e-006	-4.27293e-006	0	
-6.15024e-006	-4.44962e-006	0	
-6.13995e-006	-4.63672e-006	0	
-6.13009e-006	-4.82365e-006	0	
-6.11609e-006	-5.01175e-006	0	
-6.09409e-006	-5.1882e-006	0	
-6.06304e-006	-5.3673e-006	0	
-6.02101e-006	-5.55511e-006	0	
-5.96913e-006	-5.74414e-006	0	
-5.90879e-006	-5.93311e-006	0	
-5.842e-006	-6.12194e-006	0	
-5.77071e-006	-6.31446e-006	0	
-5.69419e-006	-6.50815e-006	0	
-5.6114e-006	-6.701e-006	0	
-5.52347e-006	-6.89375e-006	0	
-5.43145e-006	-7.08621e-006	0	
-5.33576e-006	-7.27776e-006	0	