# vtk DataFile Version 4.1
vtk output
ASCII
DATASET UNSTRUCTURED_GRID

POINTS	30401	float
0	0	0	
0	1	0	
0	2	0	
0	3	0	
0	4	0	
0	5	0	
0	6	0	
0	7	0	
0	8	0	
0	9	0	
0	10	0	
0	11	0	
0	12	0	
0	13	0	
0	14	0	
0	15	0	
0	16	0	
0	17	0	
0	18	0	
0	19	0	
0	20	0	
0	21	0	
0	22	0	
0	23	0	
0	24	0	
0	25	0	
0	26	0	
0	27	0	
0	28	0	
0	29	0	
0	30	0	
0	31	0	
0	32	0	
0	33	0	
0	34	0	
0	35	0	
0	36	0	
0	37	0	
0	38	0	
0	39	0	
0	40	0	
0	41	0	
0	42	0	
0	43	0	
0	44	0	
0	45	0	
0	46	0	
0	47	0	
0	48	0	
0	49	0	
0	50	0	
0	51	0	
0	52	0	
0	53	0	
0	54	0	
0	55	0	
0	56	0	
0	57	0	
0	58	0	
0	59	0	
0	60	0	
0	61	0	
0	62	0	
0	63	0	
0	64	0	
0	65	0	
0	66	0	
0	67	0	
0	68	0	
0	69	0	
0	70	0	
0	71	0	
0	72	0	
0	73	0	
0	74	0	
0	75	0	
0	76	0	
0	77	0	
0	78	0	
0	79	0	
0	80	0	
0	81	0	
0	82	0	
0	83	0	
0	84	0	
0	85	0	
0	86	0	
0	87	0	
0	88	0	
0	89	0	
0	90	0	
0	91	0	
0	92	0	
0	93	0	
0	94	0	
0	95	0	
0	96	0	
0	97	0	
0	98	0	
0	99	0	
0	100	0	
1	0	0	
1	1	0	
1	2	0	
1	3	0	
1	4	0	
1	5	0	
1	6	0	
1	7	0	
1	8	0	
1	9	0	
1	10	0	
1	11	0	
1	12	0	
1	13	0	
1	14	0	
1	15	0	
1	16	0	
1	17	0	
1	18	0	
1	19	0	
1	20	0	
1	21	0	
1	22	0	
1	23	0	
1	24	0	
1	25	0	
1	26	0	
1	27	0	
1	28	0	
1	29	0	
1	30	0	
1	31	0	
1	32	0	
1	33	0	
1	34	0	
1	35	0	
1	36	0	
1	37	0	
1	38	0	
1	39	0	
1	40	0	
1	41	0	
1	42	0	
1	43	0	
1	44	0	
1	45	0	
1	46	0	
1	47	0	
1	48	0	
1	49	0	
1	50	0	
1	51	0	
1	52	0	
1	53	0	
1	54	0	
1	55	0	
1	56	0	
1	57	0	
1	58	0	
1	59	0	
1	60	0	
1	61	0	
1	62	0	
1	63	0	
1	64	0	
1	65	0	
1	66	0	
1	67	0	
1	68	0	
1	69	0	
1	70	0	
1	71	0	
1	72	0	
1	73	0	
1	74	0	
1	75	0	
1	76	0	
1	77	0	
1	78	0	
1	79	0	
1	80	0	
1	81	0	
1	82	0	
1	83	0	
1	84	0	
1	85	0	
1	86	0	
1	87	0	
1	88	0	
1	89	0	
1	90	0	
1	91	0	
1	92	0	
1	93	0	
1	94	0	
1	95	0	
1	96	0	
1	97	0	
1	98	0	
1	99	0	
1	100	0	
2	0	0	
2	1	0	
2	2	0	
2	3	0	
2	4	0	
2	5	0	
2	6	0	
2	7	0	
2	8	0	
2	9	0	
2	10	0	
2	11	0	
2	12	0	
2	13	0	
2	14	0	
2	15	0	
2	16	0	
2	17	0	
2	18	0	
2	19	0	
2	20	0	
2	21	0	
2	22	0	
2	23	0	
2	24	0	
2	25	0	
2	26	0	
2	27	0	
2	28	0	
2	29	0	
2	30	0	
2	31	0	
2	32	0	
2	33	0	
2	34	0	
2	35	0	
2	36	0	
2	37	0	
2	38	0	
2	39	0	
2	40	0	
2	41	0	
2	42	0	
2	43	0	
2	44	0	
2	45	0	
2	46	0	
2	47	0	
2	48	0	
2	49	0	
2	50	0	
2	51	0	
2	52	0	
2	53	0	
2	54	0	
2	55	0	
2	56	0	
2	57	0	
2	58	0	
2	59	0	
2	60	0	
2	61	0	
2	62	0	
2	63	0	
2	64	0	
2	65	0	
2	66	0	
2	67	0	
2	68	0	
2	69	0	
2	70	0	
2	71	0	
2	72	0	
2	73	0	
2	74	0	
2	75	0	
2	76	0	
2	77	0	
2	78	0	
2	79	0	
2	80	0	
2	81	0	
2	82	0	
2	83	0	
2	84	0	
2	85	0	
2	86	0	
2	87	0	
2	88	0	
2	89	0	
2	90	0	
2	91	0	
2	92	0	
2	93	0	
2	94	0	
2	95	0	
2	96	0	
2	97	0	
2	98	0	
2	99	0	
2	100	0	
3	0	0	
3	1	0	
3	2	0	
3	3	0	
3	4	0	
3	5	0	
3	6	0	
3	7	0	
3	8	0	
3	9	0	
3	10	0	
3	11	0	
3	12	0	
3	13	0	
3	14	0	
3	15	0	
3	16	0	
3	17	0	
3	18	0	
3	19	0	
3	20	0	
3	21	0	
3	22	0	
3	23	0	
3	24	0	
3	25	0	
3	26	0	
3	27	0	
3	28	0	
3	29	0	
3	30	0	
3	31	0	
3	32	0	
3	33	0	
3	34	0	
3	35	0	
3	36	0	
3	37	0	
3	38	0	
3	39	0	
3	40	0	
3	41	0	
3	42	0	
3	43	0	
3	44	0	
3	45	0	
3	46	0	
3	47	0	
3	48	0	
3	49	0	
3	50	0	
3	51	0	
3	52	0	
3	53	0	
3	54	0	
3	55	0	
3	56	0	
3	57	0	
3	58	0	
3	59	0	
3	60	0	
3	61	0	
3	62	0	
3	63	0	
3	64	0	
3	65	0	
3	66	0	
3	67	0	
3	68	0	
3	69	0	
3	70	0	
3	71	0	
3	72	0	
3	73	0	
3	74	0	
3	75	0	
3	76	0	
3	77	0	
3	78	0	
3	79	0	
3	80	0	
3	81	0	
3	82	0	
3	83	0	
3	84	0	
3	85	0	
3	86	0	
3	87	0	
3	88	0	
3	89	0	
3	90	0	
3	91	0	
3	92	0	
3	93	0	
3	94	0	
3	95	0	
3	96	0	
3	97	0	
3	98	0	
3	99	0	
3	100	0	
4	0	0	
4	1	0	
4	2	0	
4	3	0	
4	4	0	
4	5	0	
4	6	0	
4	7	0	
4	8	0	
4	9	0	
4	10	0	
4	11	0	
4	12	0	
4	13	0	
4	14	0	
4	15	0	
4	16	0	
4	17	0	
4	18	0	
4	19	0	
4	20	0	
4	21	0	
4	22	0	
4	23	0	
4	24	0	
4	25	0	
4	26	0	
4	27	0	
4	28	0	
4	29	0	
4	30	0	
4	31	0	
4	32	0	
4	33	0	
4	34	0	
4	35	0	
4	36	0	
4	37	0	
4	38	0	
4	39	0	
4	40	0	
4	41	0	
4	42	0	
4	43	0	
4	44	0	
4	45	0	
4	46	0	
4	47	0	
4	48	0	
4	49	0	
4	50	0	
4	51	0	
4	52	0	
4	53	0	
4	54	0	
4	55	0	
4	56	0	
4	57	0	
4	58	0	
4	59	0	
4	60	0	
4	61	0	
4	62	0	
4	63	0	
4	64	0	
4	65	0	
4	66	0	
4	67	0	
4	68	0	
4	69	0	
4	70	0	
4	71	0	
4	72	0	
4	73	0	
4	74	0	
4	75	0	
4	76	0	
4	77	0	
4	78	0	
4	79	0	
4	80	0	
4	81	0	
4	82	0	
4	83	0	
4	84	0	
4	85	0	
4	86	0	
4	87	0	
4	88	0	
4	89	0	
4	90	0	
4	91	0	
4	92	0	
4	93	0	
4	94	0	
4	95	0	
4	96	0	
4	97	0	
4	98	0	
4	99	0	
4	100	0	
5	0	0	
5	1	0	
5	2	0	
5	3	0	
5	4	0	
5	5	0	
5	6	0	
5	7	0	
5	8	0	
5	9	0	
5	10	0	
5	11	0	
5	12	0	
5	13	0	
5	14	0	
5	15	0	
5	16	0	
5	17	0	
5	18	0	
5	19	0	
5	20	0	
5	21	0	
5	22	0	
5	23	0	
5	24	0	
5	25	0	
5	26	0	
5	27	0	
5	28	0	
5	29	0	
5	30	0	
5	31	0	
5	32	0	
5	33	0	
5	34	0	
5	35	0	
5	36	0	
5	37	0	
5	38	0	
5	39	0	
5	40	0	
5	41	0	
5	42	0	
5	43	0	
5	44	0	
5	45	0	
5	46	0	
5	47	0	
5	48	0	
5	49	0	
5	50	0	
5	51	0	
5	52	0	
5	53	0	
5	54	0	
5	55	0	
5	56	0	
5	57	0	
5	58	0	
5	59	0	
5	60	0	
5	61	0	
5	62	0	
5	63	0	
5	64	0	
5	65	0	
5	66	0	
5	67	0	
5	68	0	
5	69	0	
5	70	0	
5	71	0	
5	72	0	
5	73	0	
5	74	0	
5	75	0	
5	76	0	
5	77	0	
5	78	0	
5	79	0	
5	80	0	
5	81	0	
5	82	0	
5	83	0	
5	84	0	
5	85	0	
5	86	0	
5	87	0	
5	88	0	
5	89	0	
5	90	0	
5	91	0	
5	92	0	
5	93	0	
5	94	0	
5	95	0	
5	96	0	
5	97	0	
5	98	0	
5	99	0	
5	100	0	
6	0	0	
6	1	0	
6	2	0	
6	3	0	
6	4	0	
6	5	0	
6	6	0	
6	7	0	
6	8	0	
6	9	0	
6	10	0	
6	11	0	
6	12	0	
6	13	0	
6	14	0	
6	15	0	
6	16	0	
6	17	0	
6	18	0	
6	19	0	
6	20	0	
6	21	0	
6	22	0	
6	23	0	
6	24	0	
6	25	0	
6	26	0	
6	27	0	
6	28	0	
6	29	0	
6	30	0	
6	31	0	
6	32	0	
6	33	0	
6	34	0	
6	35	0	
6	36	0	
6	37	0	
6	38	0	
6	39	0	
6	40	0	
6	41	0	
6	42	0	
6	43	0	
6	44	0	
6	45	0	
6	46	0	
6	47	0	
6	48	0	
6	49	0	
6	50	0	
6	51	0	
6	52	0	
6	53	0	
6	54	0	
6	55	0	
6	56	0	
6	57	0	
6	58	0	
6	59	0	
6	60	0	
6	61	0	
6	62	0	
6	63	0	
6	64	0	
6	65	0	
6	66	0	
6	67	0	
6	68	0	
6	69	0	
6	70	0	
6	71	0	
6	72	0	
6	73	0	
6	74	0	
6	75	0	
6	76	0	
6	77	0	
6	78	0	
6	79	0	
6	80	0	
6	81	0	
6	82	0	
6	83	0	
6	84	0	
6	85	0	
6	86	0	
6	87	0	
6	88	0	
6	89	0	
6	90	0	
6	91	0	
6	92	0	
6	93	0	
6	94	0	
6	95	0	
6	96	0	
6	97	0	
6	98	0	
6	99	0	
6	100	0	
7	0	0	
7	1	0	
7	2	0	
7	3	0	
7	4	0	
7	5	0	
7	6	0	
7	7	0	
7	8	0	
7	9	0	
7	10	0	
7	11	0	
7	12	0	
7	13	0	
7	14	0	
7	15	0	
7	16	0	
7	17	0	
7	18	0	
7	19	0	
7	20	0	
7	21	0	
7	22	0	
7	23	0	
7	24	0	
7	25	0	
7	26	0	
7	27	0	
7	28	0	
7	29	0	
7	30	0	
7	31	0	
7	32	0	
7	33	0	
7	34	0	
7	35	0	
7	36	0	
7	37	0	
7	38	0	
7	39	0	
7	40	0	
7	41	0	
7	42	0	
7	43	0	
7	44	0	
7	45	0	
7	46	0	
7	47	0	
7	48	0	
7	49	0	
7	50	0	
7	51	0	
7	52	0	
7	53	0	
7	54	0	
7	55	0	
7	56	0	
7	57	0	
7	58	0	
7	59	0	
7	60	0	
7	61	0	
7	62	0	
7	63	0	
7	64	0	
7	65	0	
7	66	0	
7	67	0	
7	68	0	
7	69	0	
7	70	0	
7	71	0	
7	72	0	
7	73	0	
7	74	0	
7	75	0	
7	76	0	
7	77	0	
7	78	0	
7	79	0	
7	80	0	
7	81	0	
7	82	0	
7	83	0	
7	84	0	
7	85	0	
7	86	0	
7	87	0	
7	88	0	
7	89	0	
7	90	0	
7	91	0	
7	92	0	
7	93	0	
7	94	0	
7	95	0	
7	96	0	
7	97	0	
7	98	0	
7	99	0	
7	100	0	
8	0	0	
8	1	0	
8	2	0	
8	3	0	
8	4	0	
8	5	0	
8	6	0	
8	7	0	
8	8	0	
8	9	0	
8	10	0	
8	11	0	
8	12	0	
8	13	0	
8	14	0	
8	15	0	
8	16	0	
8	17	0	
8	18	0	
8	19	0	
8	20	0	
8	21	0	
8	22	0	
8	23	0	
8	24	0	
8	25	0	
8	26	0	
8	27	0	
8	28	0	
8	29	0	
8	30	0	
8	31	0	
8	32	0	
8	33	0	
8	34	0	
8	35	0	
8	36	0	
8	37	0	
8	38	0	
8	39	0	
8	40	0	
8	41	0	
8	42	0	
8	43	0	
8	44	0	
8	45	0	
8	46	0	
8	47	0	
8	48	0	
8	49	0	
8	50	0	
8	51	0	
8	52	0	
8	53	0	
8	54	0	
8	55	0	
8	56	0	
8	57	0	
8	58	0	
8	59	0	
8	60	0	
8	61	0	
8	62	0	
8	63	0	
8	64	0	
8	65	0	
8	66	0	
8	67	0	
8	68	0	
8	69	0	
8	70	0	
8	71	0	
8	72	0	
8	73	0	
8	74	0	
8	75	0	
8	76	0	
8	77	0	
8	78	0	
8	79	0	
8	80	0	
8	81	0	
8	82	0	
8	83	0	
8	84	0	
8	85	0	
8	86	0	
8	87	0	
8	88	0	
8	89	0	
8	90	0	
8	91	0	
8	92	0	
8	93	0	
8	94	0	
8	95	0	
8	96	0	
8	97	0	
8	98	0	
8	99	0	
8	100	0	
9	0	0	
9	1	0	
9	2	0	
9	3	0	
9	4	0	
9	5	0	
9	6	0	
9	7	0	
9	8	0	
9	9	0	
9	10	0	
9	11	0	
9	12	0	
9	13	0	
9	14	0	
9	15	0	
9	16	0	
9	17	0	
9	18	0	
9	19	0	
9	20	0	
9	21	0	
9	22	0	
9	23	0	
9	24	0	
9	25	0	
9	26	0	
9	27	0	
9	28	0	
9	29	0	
9	30	0	
9	31	0	
9	32	0	
9	33	0	
9	34	0	
9	35	0	
9	36	0	
9	37	0	
9	38	0	
9	39	0	
9	40	0	
9	41	0	
9	42	0	
9	43	0	
9	44	0	
9	45	0	
9	46	0	
9	47	0	
9	48	0	
9	49	0	
9	50	0	
9	51	0	
9	52	0	
9	53	0	
9	54	0	
9	55	0	
9	56	0	
9	57	0	
9	58	0	
9	59	0	
9	60	0	
9	61	0	
9	62	0	
9	63	0	
9	64	0	
9	65	0	
9	66	0	
9	67	0	
9	68	0	
9	69	0	
9	70	0	
9	71	0	
9	72	0	
9	73	0	
9	74	0	
9	75	0	
9	76	0	
9	77	0	
9	78	0	
9	79	0	
9	80	0	
9	81	0	
9	82	0	
9	83	0	
9	84	0	
9	85	0	
9	86	0	
9	87	0	
9	88	0	
9	89	0	
9	90	0	
9	91	0	
9	92	0	
9	93	0	
9	94	0	
9	95	0	
9	96	0	
9	97	0	
9	98	0	
9	99	0	
9	100	0	
10	0	0	
10	1	0	
10	2	0	
10	3	0	
10	4	0	
10	5	0	
10	6	0	
10	7	0	
10	8	0	
10	9	0	
10	10	0	
10	11	0	
10	12	0	
10	13	0	
10	14	0	
10	15	0	
10	16	0	
10	17	0	
10	18	0	
10	19	0	
10	20	0	
10	21	0	
10	22	0	
10	23	0	
10	24	0	
10	25	0	
10	26	0	
10	27	0	
10	28	0	
10	29	0	
10	30	0	
10	31	0	
10	32	0	
10	33	0	
10	34	0	
10	35	0	
10	36	0	
10	37	0	
10	38	0	
10	39	0	
10	40	0	
10	41	0	
10	42	0	
10	43	0	
10	44	0	
10	45	0	
10	46	0	
10	47	0	
10	48	0	
10	49	0	
10	50	0	
10	51	0	
10	52	0	
10	53	0	
10	54	0	
10	55	0	
10	56	0	
10	57	0	
10	58	0	
10	59	0	
10	60	0	
10	61	0	
10	62	0	
10	63	0	
10	64	0	
10	65	0	
10	66	0	
10	67	0	
10	68	0	
10	69	0	
10	70	0	
10	71	0	
10	72	0	
10	73	0	
10	74	0	
10	75	0	
10	76	0	
10	77	0	
10	78	0	
10	79	0	
10	80	0	
10	81	0	
10	82	0	
10	83	0	
10	84	0	
10	85	0	
10	86	0	
10	87	0	
10	88	0	
10	89	0	
10	90	0	
10	91	0	
10	92	0	
10	93	0	
10	94	0	
10	95	0	
10	96	0	
10	97	0	
10	98	0	
10	99	0	
10	100	0	
11	0	0	
11	1	0	
11	2	0	
11	3	0	
11	4	0	
11	5	0	
11	6	0	
11	7	0	
11	8	0	
11	9	0	
11	10	0	
11	11	0	
11	12	0	
11	13	0	
11	14	0	
11	15	0	
11	16	0	
11	17	0	
11	18	0	
11	19	0	
11	20	0	
11	21	0	
11	22	0	
11	23	0	
11	24	0	
11	25	0	
11	26	0	
11	27	0	
11	28	0	
11	29	0	
11	30	0	
11	31	0	
11	32	0	
11	33	0	
11	34	0	
11	35	0	
11	36	0	
11	37	0	
11	38	0	
11	39	0	
11	40	0	
11	41	0	
11	42	0	
11	43	0	
11	44	0	
11	45	0	
11	46	0	
11	47	0	
11	48	0	
11	49	0	
11	50	0	
11	51	0	
11	52	0	
11	53	0	
11	54	0	
11	55	0	
11	56	0	
11	57	0	
11	58	0	
11	59	0	
11	60	0	
11	61	0	
11	62	0	
11	63	0	
11	64	0	
11	65	0	
11	66	0	
11	67	0	
11	68	0	
11	69	0	
11	70	0	
11	71	0	
11	72	0	
11	73	0	
11	74	0	
11	75	0	
11	76	0	
11	77	0	
11	78	0	
11	79	0	
11	80	0	
11	81	0	
11	82	0	
11	83	0	
11	84	0	
11	85	0	
11	86	0	
11	87	0	
11	88	0	
11	89	0	
11	90	0	
11	91	0	
11	92	0	
11	93	0	
11	94	0	
11	95	0	
11	96	0	
11	97	0	
11	98	0	
11	99	0	
11	100	0	
12	0	0	
12	1	0	
12	2	0	
12	3	0	
12	4	0	
12	5	0	
12	6	0	
12	7	0	
12	8	0	
12	9	0	
12	10	0	
12	11	0	
12	12	0	
12	13	0	
[...]
POINT_DATA	30401
VECTORS d float
-1.41665e-017	-2.5692e-017	0	
-7.49242e-007	-8.00937e-007	0	
-1.31414e-006	-1.29789e-006	0	
-1.84646e-006	-1.69639e-006	0	
-2.36053e-006	-2.02856e-006	0	
-2.86352e-006	-2.3024e-006	0	
-3.35095e-006	-2.52623e-006	0	
-3.81886e-006	-2.70469e-006	0	
-4.26222e-006	-2.84061e-006	0	
-4.67574e-006	-2.93473e-006	0	
-5.04108e-006	-2.97513e-006	0	
-5.32807e-006	-2.97615e-006	0	
-5.69382e-006	-3.0769e-006	0	
-6.00455e-006	-3.20125e-006	0	
-6.30944e-006	-3.30474e-006	0	
-6.57333e-006	-3.3982e-006	0	
-6.83154e-006	-3.51626e-006	0	
-7.08928e-006	-3.62405e-006	0	
-7.3249e-006	-3.71942e-006	0	
-7.53168e-006	-3.81207e-006	0	
-7.71919e-006	-3.90652e-006	0	
-7.89211e-006	-3.99944e-006	0	
-8.05131e-006	-4.08617e-006	0	
-8.19546e-006	-4.16512e-006	0	
-8.32249e-006	-4.2372e-006	0	
-8.43262e-006	-4.30592e-006	0	
-8.52803e-006	-4.37451e-006	0	
-8.61114e-006	-4.4424e-006	0	
-8.68364e-006	-4.50808e-006	0	
-8.74621e-006	-4.57093e-006	0	
-8.79877e-006	-4.63091e-006	0	
-8.84107e-006	-4.68781e-006	0	
-8.87299e-006	-4.74147e-006	0	
-8.89457e-006	-4.79216e-006	0	
-8.90582e-006	-4.83992e-006	0	
-8.90654e-006	-4.88482e-006	0	
-8.89648e-006	-4.9271e-006	0	
-8.87557e-006	-4.96694e-006	0	
-8.84363e-006	-5.00455e-006	0	
-8.80049e-006	-5.04009e-006	0	
-8.74624e-006	-5.07421e-006	0	
-8.68089e-006	-5.10738e-006	0	
-8.60456e-006	-5.14001e-006	0	
-8.51757e-006	-5.17255e-006	0	
-8.42035e-006	-5.20544e-006	0	
-8.31347e-006	-5.23905e-006	0	
-8.19756e-006	-5.27366e-006	0	
-8.07327e-006	-5.30949e-006	0	
-7.94126e-006	-5.34666e-006	0	
-7.80217e-006	-5.38522e-006	0	
-7.65657e-006	-5.42517e-006	0	
-7.50504e-006	-5.46641e-006	0	
-7.34814e-006	-5.50874e-006	0	
-7.1863e-006	-5.55192e-006	0	
-7.01992e-006	-5.59571e-006	0	
-6.84939e-006	-5.63988e-006	0	
-6.67506e-006	-5.6841e-006	0	
-6.49715e-006	-5.72797e-006	0	
-6.31583e-006	-5.77113e-006	0	
-6.1313e-006	-5.81318e-006	0	
-5.94362e-006	-5.8537e-006	0	
-5.7528e-006	-5.89231e-006	0	
-5.55879e-006	-5.92861e-006	0	
-5.36146e-006	-5.96215e-006	0	
-5.16064e-006	-5.99256e-006	0	
-4.95612e-006	-6.01942e-006	0	
-4.74757e-006	-6.04229e-006	0	
-4.53461e-006	-6.06081e-006	0	
-4.31686e-006	-6.07464e-006	0	
-4.09384e-006	-6.08343e-006	0	
-3.86501e-006	-6.08689e-006	0	
-3.62983e-006	-6.08479e-006	0	
-3.3877e-006	-6.07692e-006	0	
-3.13801e-006	-6.06316e-006	0	
-2.88009e-006	-6.04345e-006	0	
-2.61324e-006	-6.01781e-006	0	
-2.33688e-006	-5.98632e-006	0	
-2.05036e-006	-5.94914e-006	0	
-1.75302e-006	-5.90653e-006	0	
-1.44435e-006	-5.85881e-006	0	
-1.12383e-006	-5.80633e-006	0	
-7.91016e-007	-5.74958e-006	0	
-4.45604e-007	-5.68907e-006	0	
-8.73198e-008	-5.62541e-006	0	
2.84022e-007	-5.55925e-006	0	
6.68481e-007	-5.49128e-006	0	
1.066e-006	-5.42224e-006	0	
1.47642e-006	-5.35289e-006	0	
1.89947e-006	-5.28406e-006	0	
2.33474e-006	-5.21659e-006	0	
2.78168e-006	-5.15133e-006	0	
3.23967e-006	-5.08913e-006	0	
3.7078e-006	-5.03089e-006	0	
4.18508e-006	-4.97744e-006	0	
4.67039e-006	-4.9296e-006	0	
5.16235e-006	-4.88814e-006	0	
5.65939e-006	-4.85372e-006	0	
6.15984e-006	-4.82686e-006	0	
6.66184e-006	-4.80782e-006	0	
7.1636e-006	-4.7964e-006	0	
7.66653e-006	-4.79066e-006	0	
-4.03493e-018	-8.74294e-018	0	
-5.56964e-007	-4.4203e-007	0	
-1.13333e-006	-8.71515e-007	0	
-1.69279e-006	-1.25934e-006	0	
-2.23182e-006	-1.58685e-006	0	
-2.75586e-006	-1.86539e-006	0	
-3.26212e-006	-2.1005e-006	0	
-3.74706e-006	-2.29702e-006	0	
-4.2063e-006	-2.4588e-006	0	
-4.63426e-006	-2.58958e-006	0	
-5.01892e-006	-2.6942e-006	0	
-5.34003e-006	-2.78714e-006	0	
-5.68726e-006	-2.88714e-006	0	
-5.92469e-006	-2.88961e-006	0	
-6.26793e-006	-3.02148e-006	0	
-6.529e-006	-3.14349e-006	0	
-6.77835e-006	-3.26061e-006	0	
-7.04546e-006	-3.3833e-006	0	
-7.27936e-006	-3.50269e-006	0	
-7.48652e-006	-3.62016e-006	0	
-7.67519e-006	-3.73265e-006	0	
-7.85022e-006	-3.84019e-006	0	
-8.01261e-006	-3.94171e-006	0	
-8.16003e-006	-4.03626e-006	0	
-8.28934e-006	-4.12438e-006	0	
-8.40032e-006	-4.20837e-006	0	
-8.49614e-006	-4.29005e-006	0	
-8.58013e-006	-4.36937e-006	0	
-8.6539e-006	-4.44557e-006	0	
-8.71777e-006	-4.51879e-006	0	
-8.77165e-006	-4.58895e-006	0	
-8.81535e-006	-4.65593e-006	0	
-8.8486e-006	-4.71979e-006	0	
-8.87142e-006	-4.78075e-006	0	
-8.88393e-006	-4.83887e-006	0	
-8.88581e-006	-4.89428e-006	0	
-8.87683e-006	-4.94715e-006	0	
-8.8569e-006	-4.99768e-006	0	
-8.82589e-006	-5.04611e-006	0	
-8.78353e-006	-5.09246e-006	0	
-8.7298e-006	-5.13724e-006	0	
-8.6648e-006	-5.18097e-006	0	
-8.58867e-006	-5.22394e-006	0	
-8.50169e-006	-5.26647e-006	0	
-8.40432e-006	-5.30892e-006	0	
-8.29717e-006	-5.35158e-006	0	
-8.18087e-006	-5.39471e-006	0	
-8.05612e-006	-5.43852e-006	0	
-7.92361e-006	-5.48311e-006	0	
-7.784e-006	-5.52854e-006	0	
-7.6379e-006	-5.57484e-006	0	
-7.48593e-006	-5.62192e-006	0	
-7.32866e-006	-5.66966e-006	0	
-7.16653e-006	-5.71788e-006	0	
-6.99995e-006	-5.76634e-006	0	
-6.82934e-006	-5.81485e-006	0	
-6.65505e-006	-5.86318e-006	0	
-6.47733e-006	-5.91099e-006	0	
-6.29637e-006	-5.95793e-006	0	
-6.11236e-006	-6.00367e-006	0	
-5.92535e-006	-6.04787e-006	0	
-5.73535e-006	-6.09019e-006	0	
-5.54233e-006	-6.13028e-006	0	
-5.34618e-006	-6.1678e-006	0	
-5.1467e-006	-6.20236e-006	0	
-4.94367e-006	-6.23361e-006	0	
-4.73679e-006	-6.26123e-006	0	
-4.52565e-006	-6.28487e-006	0	
-4.30986e-006	-6.30424e-006	0	
-4.08892e-006	-6.31903e-006	0	
-3.8623e-006	-6.32899e-006	0	
-3.62942e-006	-6.3339e-006	0	
-3.38965e-006	-6.33361e-006	0	
-3.14236e-006	-6.32801e-006	0	
-2.88685e-006	-6.31704e-006	0	
-2.62243e-006	-6.30071e-006	0	
-2.34844e-006	-6.2791e-006	0	
-2.06421e-006	-6.25236e-006	0	
-1.76908e-006	-6.22068e-006	0	
-1.46248e-006	-6.18433e-006	0	
-1.14388e-006	-6.14363e-006	0	
-8.12801e-007	-6.09896e-006	0	
-4.68912e-007	-6.05078e-006	0	
-1.11916e-007	-5.99961e-006	0	
2.58394e-007	-5.946e-006	0	
6.42084e-007	-5.89053e-006	0	
1.03912e-006	-5.83385e-006	0	
1.44937e-006	-5.77658e-006	0	
1.8726e-006	-5.71945e-006	0	
2.30835e-006	-5.66317e-006	0	
2.7561e-006	-5.60846e-006	0	
3.21522e-006	-5.55606e-006	0	
3.68484e-006	-5.50668e-006	0	
4.16394e-006	-5.46103e-006	0	
4.65135e-006	-5.4198e-006	0	
5.14568e-006	-5.3836e-006	0	
5.64537e-006	-5.35296e-006	0	
6.14863e-006	-5.32833e-006	0	
6.65351e-006	-5.31004e-006	0	
7.15812e-006	-5.29839e-006	0	
7.66088e-006	-5.29294e-006	0	
-2.44438e-018	-6.44758e-018	0	
-4.59616e-007	-3.0737e-007	0	
-1.00408e-006	-6.41983e-007	0	
-1.56269e-006	-9.69487e-007	0	
-2.11413e-006	-1.26836e-006	0	
-2.65247e-006	-1.53485e-006	0	
-3.17244e-006	-1.76962e-006	0	
-3.66969e-006	-1.97551e-006	0	
-4.13949e-006	-2.15582e-006	0	
-4.57578e-006	-2.31452e-006	0	
-4.97095e-006	-2.45457e-006	0	
-5.32672e-006	-2.57255e-006	0	
-5.66679e-006	-2.67492e-006	0	
-5.94361e-006	-2.77682e-006	0	
-6.2621e-006	-2.89682e-006	0	
-6.46606e-006	-2.9075e-006	0	
-6.68089e-006	-2.93819e-006	0	
-6.98393e-006	-3.14607e-006	0	
-7.22367e-006	-3.30285e-006	0	
-7.43131e-006	-3.44331e-006	0	
-7.62391e-006	-3.57537e-006	0	
-7.80151e-006	-3.6978e-006	0	
-7.96682e-006	-3.81492e-006	0	
-8.11962e-006	-3.92338e-006	0	
-8.25135e-006	-4.02429e-006	0	
-8.36281e-006	-4.12131e-006	0	
-8.4592e-006	-4.21543e-006	0	
-8.54428e-006	-4.30606e-006	0	
-8.61956e-006	-4.39328e-006	0	
-8.685e-006	-4.47706e-006	0	
-8.7405e-006	-4.55735e-006	0	
-8.78571e-006	-4.63434e-006	0	
-8.8203e-006	-4.70829e-006	0	
-8.84427e-006	-4.77894e-006	0	
-8.85803e-006	-4.84709e-006	0	
-8.86108e-006	-4.91286e-006	0	
-8.85319e-006	-4.97605e-006	0	
-8.8343e-006	-5.03688e-006	0	
-8.80426e-006	-5.09556e-006	0	
-8.76278e-006	-5.15217e-006	0	
-8.70969e-006	-5.20692e-006	0	
-8.64515e-006	-5.2604e-006	0	
-8.56929e-006	-5.31291e-006	0	
-8.48242e-006	-5.36472e-006	0	
-8.38502e-006	-5.41611e-006	0	
-8.27768e-006	-5.46738e-006	0	
-8.16111e-006	-5.51873e-006	0	
-8.036e-006	-5.57033e-006	0	
-7.90308e-006	-5.62229e-006	0	
-7.76305e-006	-5.67469e-006	0	
-7.61656e-006	-5.72755e-006	0	
-7.46419e-006	-5.78083e-006	0	
-7.30657e-006	-5.83444e-006	0	
-7.14417e-006	-5.88824e-006	0	
-6.9774e-006	-5.94203e-006	0	
-6.80669e-006	-5.99564e-006	0	
-6.6324e-006	-6.04885e-006	0	
-6.45479e-006	-6.10141e-006	0	
-6.2741e-006	-6.15304e-006	0	
-6.09048e-006	-6.20344e-006	0	
-5.90401e-006	-6.2523e-006	0	
-5.71469e-006	-6.29934e-006	0	
-5.52249e-006	-6.34423e-006	0	
-5.32731e-006	-6.38671e-006	0	
-5.12897e-006	-6.42644e-006	0	
-4.92723e-006	-6.46313e-006	0	
-4.72177e-006	-6.49648e-006	0	
-4.51221e-006	-6.52619e-006	0	
-4.29814e-006	-6.55198e-006	0	
-4.07904e-006	-6.57357e-006	0	
-3.85439e-006	-6.59076e-006	0	
-3.62357e-006	-6.60333e-006	0	
-3.38593e-006	-6.61116e-006	0	
-3.14083e-006	-6.61415e-006	0	
-2.88756e-006	-6.61222e-006	0	
-2.6254e-006	-6.60537e-006	0	
-2.35366e-006	-6.59366e-006	0	
-2.07162e-006	-6.57721e-006	0	
-1.77865e-006	-6.55618e-006	0	
-1.47413e-006	-6.53078e-006	0	
-1.15748e-006	-6.50128e-006	0	
-8.28251e-007	-6.46801e-006	0	
-4.86036e-007	-6.43136e-006	0	
-1.30528e-007	-6.39172e-006	0	
2.38483e-007	-6.34959e-006	0	
6.21086e-007	-6.30546e-006	0	
1.01724e-006	-6.25987e-006	0	
1.42689e-006	-6.21337e-006	0	
1.84974e-006	-6.16657e-006	0	
2.28539e-006	-6.12007e-006	0	
2.73334e-006	-6.07447e-006	0	
3.19289e-006	-6.0304e-006	0	
3.66323e-006	-5.98846e-006	0	
4.14333e-006	-5.94926e-006	0	
4.63197e-006	-5.91337e-006	0	
5.12781e-006	-5.8813e-006	0	
5.62924e-006	-5.85357e-006	0	
6.13449e-006	-5.83063e-006	0	
6.64158e-006	-5.81288e-006	0	
7.14838e-006	-5.80054e-006	0	
7.65226e-006	-5.7935e-006	0	
-2.32676e-018	-5.35207e-018	0	
-4.2156e-007	-2.47007e-007	0	
-9.24844e-007	-5.12332e-007	0	
-1.46676e-006	-7.82913e-007	0	
-2.01817e-006	-1.04436e-006	0	
-2.56201e-006	-1.28889e-006	0	
-3.08906e-006	-1.51445e-006	0	
-3.59325e-006	-1.72141e-006	0	
-4.06949e-006	-1.91092e-006	0	
-4.51258e-006	-2.08423e-006	0	
-4.91856e-006	-2.24125e-006	0	
-5.28988e-006	-2.38159e-006	0	
-5.62924e-006	-2.50954e-006	0	
-5.93887e-006	-2.62424e-006	0	
-6.24026e-006	-2.72878e-006	0	
-6.47717e-006	-2.83385e-006	0	
-6.74166e-006	-2.95218e-006	0	
-6.88184e-006	-2.95813e-006	0	
-7.17122e-006	-3.14074e-006	0	
-7.36243e-006	-3.29316e-006	0	
-7.56938e-006	-3.43477e-006	0	
-7.74203e-006	-3.56857e-006	0	
-7.91488e-006	-3.70424e-006	0	
-8.0774e-006	-3.82572e-006	0	
-8.21134e-006	-3.93621e-006	0	
-8.32027e-006	-4.04503e-006	0	
-8.41686e-006	-4.15183e-006	0	
-8.50354e-006	-4.25355e-006	0	
-8.58067e-006	-4.35103e-006	0	
-8.648e-006	-4.44469e-006	0	
-8.70524e-006	-4.53507e-006	0	
-8.75212e-006	-4.62216e-006	0	
-8.7883e-006	-4.7061e-006	0	
-8.81344e-006	-4.78627e-006	0	
-8.82824e-006	-4.86431e-006	0	
-8.83242e-006	-4.94023e-006	0	
-8.82574e-006	-5.01359e-006	0	
-8.80803e-006	-5.08446e-006	0	
-8.77911e-006	-5.153e-006	0	
-8.73868e-006	-5.21934e-006	0	
-8.68644e-006	-5.28356e-006	0	
-8.62245e-006	-5.34622e-006	0	
-8.54693e-006	-5.40772e-006	0	
-8.4602e-006	-5.46829e-006	0	
-8.36276e-006	-5.52823e-006	0	
-8.25526e-006	-5.58776e-006	0	
-8.13843e-006	-5.64709e-006	0	
-8.01299e-006	-5.70636e-006	0	
-7.87968e-006	-5.76566e-006	0	
-7.73923e-006	-5.8251e-006	0	
-7.59231e-006	-5.88474e-006	0	
-7.43953e-006	-5.94452e-006	0	
-7.28151e-006	-6.00439e-006	0	
-7.11878e-006	-6.06424e-006	0	
-6.95177e-006	-6.12392e-006	0	
-6.78088e-006	-6.18325e-006	0	
-6.6065e-006	-6.24203e-006	0	
-6.42892e-006	-6.30009e-006	0	
-6.24836e-006	-6.35718e-006	0	
-6.06497e-006	-6.41302e-006	0	
-5.87888e-006	-6.4674e-006	0	
-5.69008e-006	-6.52002e-006	0	
-5.49853e-006	-6.57062e-006	0	
-5.30413e-006	-6.61895e-006	0	
-5.10672e-006	-6.66474e-006	0	
-4.90606e-006	-6.70772e-006	0	
-4.7018e-006	-6.74762e-006	0	
-4.49362e-006	-6.78417e-006	0	
-4.28107e-006	-6.8171e-006	0	
-4.06363e-006	-6.84618e-006	0	
-3.84076e-006	-6.8712e-006	0	
-3.61184e-006	-6.89196e-006	0	
-3.3762e-006	-6.90834e-006	0	
-3.13319e-006	-6.92023e-006	0	
-2.88205e-006	-6.92754e-006	0	
-2.62208e-006	-6.93026e-006	0	
-2.35255e-006	-6.92843e-006	0	
-2.07273e-006	-6.92212e-006	0	
-1.78197e-006	-6.91145e-006	0	
-1.47961e-006	-6.89659e-006	0	
-1.16507e-006	-6.87778e-006	0	
-8.37856e-007	-6.85527e-006	0	
-4.9755e-007	-6.82936e-006	0	
-1.43842e-007	-6.8004e-006	0	
2.23516e-007	-6.76879e-006	0	
6.04641e-007	-6.73496e-006	0	
9.99507e-007	-6.69936e-006	0	
1.40803e-006	-6.66249e-006	0	
1.82995e-006	-6.62482e-006	0	
2.26491e-006	-6.58685e-006	0	
2.71239e-006	-6.54913e-006	0	
3.17169e-006	-6.51216e-006	0	
3.642e-006	-6.47648e-006	0	
4.12231e-006	-6.44259e-006	0	
4.61144e-006	-6.41101e-006	0	
5.10803e-006	-6.38221e-006	0	
5.6105e-006	-6.35668e-006	0	
6.11708e-006	-6.33485e-006	0	
6.62579e-006	-6.31715e-006	0	
7.13434e-006	-6.30392e-006	0	
7.63988e-006	-6.29539e-006	0	
-2.22983e-018	-4.48034e-018	0	
-3.96005e-007	-2.07949e-007	0	
-8.73115e-007	-4.29614e-007	0	
-1.40052e-006	-6.56789e-007	0	
-1.94625e-006	-8.82256e-007	0	
-2.48888e-006	-1.10211e-006	0	
-3.01677e-006	-1.31421e-006	0	
-3.52306e-006	-1.51711e-006	0	
-4.00267e-006	-1.70965e-006	0	
-4.45124e-006	-1.89068e-006	0	
-4.86571e-006	-2.05907e-006	0	
-5.24562e-006	-2.21457e-006	0	
-5.5929e-006	-2.35814e-006	0	
-5.91201e-006	-2.49109e-006	0	
-6.20466e-006	-2.61814e-006	0	
-6.46905e-006	-2.73781e-006	0	
-6.72141e-006	-2.85049e-006	0	
-6.90648e-006	-2.96918e-006	0	
-7.14878e-006	-3.10963e-006	0	
-7.24501e-006	-3.11379e-006	0	
-7.52064e-006	-3.31493e-006	0	
-7.68338e-006	-3.47045e-006	0	
-7.85361e-006	-3.61189e-006	0	
-8.04315e-006	-3.74275e-006	0	
-8.16851e-006	-3.86158e-006	0	
-8.27245e-006	-3.98547e-006	0	
-8.36975e-006	-4.10251e-006	0	
-8.45861e-006	-4.21258e-006	0	
-8.5381e-006	-4.31886e-006	0	
-8.60713e-006	-4.42148e-006	0	
-8.666e-006	-4.52136e-006	0	
-8.7146e-006	-4.61847e-006	0	
-8.75246e-006	-4.71257e-006	0	
-8.77887e-006	-4.80265e-006	0	
-8.79479e-006	-4.8908e-006	0	
-8.80001e-006	-4.97653e-006	0	
-8.79465e-006	-5.05978e-006	0	
-8.77831e-006	-5.14037e-006	0	
-8.75072e-006	-5.21841e-006	0	
-8.71159e-006	-5.29413e-006	0	
-8.66041e-006	-5.3675e-006	0	
-8.59711e-006	-5.43894e-006	0	
-8.52195e-006	-5.50902e-006	0	
-8.43534e-006	-5.57801e-006	0	
-8.33782e-006	-5.64617e-006	0	
-8.23011e-006	-5.71375e-006	0	
-8.11296e-006	-5.7809e-006	0	
-7.98713e-006	-5.84776e-006	0	
-7.85336e-006	-5.91444e-006	0	
-7.71241e-006	-5.98104e-006	0	
-7.56497e-006	-6.04762e-006	0	
-7.4117e-006	-6.11416e-006	0	
-7.2532e-006	-6.18063e-006	0	
-7.09002e-006	-6.24693e-006	0	
-6.92265e-006	-6.31295e-006	0	
-6.75145e-006	-6.37853e-006	0	
-6.57685e-006	-6.44351e-006	0	
-6.39916e-006	-6.5077e-006	0	
-6.21858e-006	-6.57091e-006	0	
-6.03527e-006	-6.6329e-006	0	
-5.84937e-006	-6.69348e-006	0	
-5.66089e-006	-6.7524e-006	0	
-5.46979e-006	-6.80944e-006	0	
-5.27599e-006	-6.86437e-006	0	
-5.07933e-006	-6.91697e-006	0	
-4.87953e-006	-6.96696e-006	0	
-4.67631e-006	-7.01409e-006	0	
-4.46934e-006	-7.05814e-006	0	
-4.25814e-006	-7.09884e-006	0	
-4.04222e-006	-7.13597e-006	0	
-3.82101e-006	-7.16932e-006	0	
-3.59388e-006	-7.19869e-006	0	
-3.36017e-006	-7.22395e-006	0	
-3.1192e-006	-7.24495e-006	0	
-2.8702e-006	-7.26164e-006	0	
-2.61245e-006	-7.27397e-006	0	
-2.34521e-006	-7.28194e-006	0	
-2.06771e-006	-7.28559e-006	0	
-1.77928e-006	-7.28499e-006	0	
-1.47925e-006	-7.28028e-006	0	
-1.16704e-006	-7.27166e-006	0	
-8.42096e-007	-7.25929e-006	0	
-5.0401e-007	-7.24343e-006	0	
-1.52452e-007	-7.22438e-006	0	
2.12839e-007	-7.20246e-006	0	
5.92014e-007	-7.17802e-006	0	
9.85094e-007	-7.15147e-006	0	
1.39196e-006	-7.1232e-006	0	
1.8124e-006	-7.0936e-006	0	
2.24604e-006	-7.06313e-006	0	
2.69237e-006	-7.0322e-006	0	
3.15074e-006	-7.00131e-006	0	
3.62033e-006	-6.97088e-006	0	
4.10018e-006	-6.94138e-006	0	
4.58911e-006	-6.91325e-006	0	
5.08577e-006	-6.88698e-006	0	
5.58865e-006	-6.86302e-006	0	
6.09603e-006	-6.84181e-006	0	
6.6059e-006	-6.8238e-006	0	
7.11601e-006	-6.80949e-006	0	
7.62367e-006	-6.79939e-006	0	
-2.0383e-018	-3.72266e-018	0	
-3.71165e-007	-1.76966e-007	0	
-8.35198e-007	-3.66313e-007	0	
-1.35665e-006	-5.58172e-007	0	
-1.89632e-006	-7.52251e-007	0	
-2.43327e-006	-9.49812e-007	0	
-2.95702e-006	-1.14898e-006	0	
-3.4613e-006	-1.34698e-006	0	
-3.94173e-006	-1.54061e-006	0	
-4.39406e-006	-1.72686e-006	0	
-4.81454e-006	-1.90351e-006	0	
-5.20114e-006	-2.06987e-006	0	
-5.55425e-006	-2.22682e-006	0	
-5.87632e-006	-2.37621e-006	0	
-6.17022e-006	-2.51993e-006	0	
-6.43876e-006	-2.65884e-006	0	
-6.68223e-006	-2.79532e-006	0	
-6.90209e-006	-2.92465e-006	0	
-7.12266e-006	-3.04931e-006	0	
-7.27156e-006	-3.18369e-006	0	
-7.49494e-006	-3.35107e-006	0	
-7.57486e-006	-3.37e-006	0	
-7.69765e-006	-3.42767e-006	0	
-8.00344e-006	-3.67075e-006	0	
-8.12641e-006	-3.825e-006	0	
-8.21708e-006	-3.95061e-006	0	
-8.32311e-006	-4.06697e-006	0	
-8.41128e-006	-4.18096e-006	0	
-8.49247e-006	-4.29571e-006	0	
-8.56281e-006	-4.40675e-006	0	
-8.62285e-006	-4.51637e-006	0	
-8.67322e-006	-4.62306e-006	0	
-8.71275e-006	-4.72686e-006	0	
-8.74039e-006	-4.82708e-006	0	
-8.75747e-006	-4.92548e-006	0	
-8.76391e-006	-5.02119e-006	0	
-8.75995e-006	-5.11444e-006	0	
-8.74529e-006	-5.20485e-006	0	
-8.71935e-006	-5.29224e-006	0	
-8.68177e-006	-5.3769e-006	0	
-8.63194e-006	-5.45909e-006	0	
-8.56944e-006	-5.53905e-006	0	
-8.49464e-006	-5.61744e-006	0	
-8.40806e-006	-5.69461e-006	0	
-8.31036e-006	-5.77079e-006	0	
-8.20234e-006	-5.84625e-006	0	
-8.08475e-006	-5.92113e-006	0	
-7.95841e-006	-5.99555e-006	0	
-7.82407e-006	-6.06964e-006	0	
-7.68249e-006	-6.14347e-006	0	
-7.5344e-006	-6.21714e-006	0	
-7.38049e-006	-6.29067e-006	0	
-7.22135e-006	-6.364e-006	0	
-7.05757e-006	-6.4371e-006	0	
-6.88966e-006	-6.50988e-006	0	
-6.71801e-006	-6.58216e-006	0	
-6.54302e-006	-6.65382e-006	0	
-6.36503e-006	-6.72469e-006	0	
-6.18425e-006	-6.7946e-006	0	
-6.00087e-006	-6.86335e-006	0	
-5.81499e-006	-6.93074e-006	0	
-5.62664e-006	-6.99658e-006	0	
-5.4358e-006	-7.06069e-006	0	
-5.2424e-006	-7.12285e-006	0	
-5.04627e-006	-7.18283e-006	0	
-4.84718e-006	-7.24043e-006	0	
-4.64486e-006	-7.2954e-006	0	
-4.43891e-006	-7.34747e-006	0	
-4.22893e-006	-7.39643e-006	0	
-4.01442e-006	-7.44206e-006	0	
-3.79479e-006	-7.48412e-006	0	
-3.56942e-006	-7.52243e-006	0	
-3.33765e-006	-7.5568e-006	0	
-3.09874e-006	-7.58711e-006	0	
-2.85195e-006	-7.61327e-006	0	
-2.59651e-006	-7.63519e-006	0	
-2.33168e-006	-7.65285e-006	0	
-2.05668e-006	-7.66625e-006	0	
-1.77079e-006	-7.67545e-006	0	
-1.47336e-006	-7.68052e-006	0	
-1.16377e-006	-7.68158e-006	0	
-8.41462e-007	-7.6788e-006	0	
-5.05993e-007	-7.67237e-006	0	
-1.5698e-007	-7.66252e-006	0	
2.05819e-007	-7.64953e-006	0	
5.82563e-007	-7.6337e-006	0	
9.73309e-007	-7.61532e-006	0	
1.37797e-006	-7.59472e-006	0	
1.79632e-006	-7.57229e-006	0	
2.22802e-006	-7.54838e-006	0	
2.67258e-006	-7.52337e-006	0	
3.12938e-006	-7.49766e-006	0	
3.59759e-006	-7.47165e-006	0	
4.07631e-006	-7.44576e-006	0	
4.56439e-006	-7.42043e-006	0	
5.06053e-006	-7.39606e-006	0	
5.56326e-006	-7.37314e-006	0	
6.07093e-006	-7.35214e-006	0	
6.58165e-006	-7.33358e-006	0	
7.09327e-006	-7.31801e-006	0	
7.60335e-006	-7.3062e-006	0	
-1.67027e-018	-2.81448e-018	0	
-3.39476e-007	-1.42105e-007	0	
-8.05569e-007	-2.99509e-007	0	
-1.33066e-006	-4.58254e-007	0	
-1.86475e-006	-6.27094e-007	0	
-2.39226e-006	-8.09991e-007	0	
-2.90769e-006	-1.00151e-006	0	
-3.40677e-006	-1.19765e-006	0	
-3.88614e-006	-1.394e-006	0	
-4.34134e-006	-1.5859e-006	0	
-4.76691e-006	-1.76996e-006	0	
-5.15829e-006	-1.94553e-006	0	
-5.5145e-006	-2.11399e-006	0	
-5.8378e-006	-2.27713e-006	0	
-6.13169e-006	-2.43627e-006	0	
-6.39947e-006	-2.59209e-006	0	
-6.64402e-006	-2.74423e-006	0	
-6.86976e-006	-2.8919e-006	0	
-7.07693e-006	-3.0388e-006	0	
-7.26491e-006	-3.18067e-006	0	
-7.4623e-006	-3.32015e-006	0	
-7.58819e-006	-3.47704e-006	0	
-7.81379e-006	-3.72233e-006	0	
-7.9937e-006	-3.84658e-006	0	
-8.11179e-006	-3.89658e-006	0	
-8.14146e-006	-3.899e-006	0	
-8.2868e-006	-4.04097e-006	0	
-8.35731e-006	-4.1595e-006	0	
-8.44703e-006	-4.27878e-006	0	
-8.51411e-006	-4.39819e-006	0	
-8.57564e-006	-4.51947e-006	0	
-8.62847e-006	-4.63548e-006	0	
-8.66944e-006	-4.74869e-006	0	
-8.69788e-006	-4.85867e-006	0	
-8.71593e-006	-4.96744e-006	0	
-8.72356e-006	-5.07399e-006	0	
-8.72132e-006	-5.1779e-006	0	
-8.70895e-006	-5.27844e-006	0	
-8.68534e-006	-5.37506e-006	0	
-8.64963e-006	-5.46813e-006	0	
-8.60132e-006	-5.55878e-006	0	
-8.53973e-006	-5.64702e-006	0	
-8.4652e-006	-5.73351e-006	0	
-8.37853e-006	-5.81872e-006	0	
-8.28053e-006	-5.90286e-006	0	
-8.17203e-006	-5.98612e-006	0	