# vtk DataFile Version 4.1
vtk output
ASCII
DATASET UNSTRUCTURED_GRID

POINTS	30401	float
0	0	0	
0	1	0	
0	2	0	
0	3	0	
0	4	0	
0	5	0	
0	6	0	
0	7	0	
0	8	0	
0	9	0	
0	10	0	
0	11	0	
0	12	0	
0	13	0	
0	14	0	
0	15	0	
0	16	0	
0	17	0	
0	18	0	
0	19	0	
0	20	0	
0	21	0	
0	22	0	
0	23	0	
0	24	0	
0	25	0	
0	26	0	
0	27	0	
0	28	0	
0	29	0	
0	30	0	
0	31	0	
0	32	0	
0	33	0	
0	34	0	
0	35	0	
0	36	0	
0	37	0	
0	38	0	
0	39	0	
0	40	0	
0	41	0	
0	42	0	
0	43	0	
0	44	0	
0	45	0	
0	46	0	
0	47	0	
0	48	0	
0	49	0	
0	50	0	
0	51	0	
0	52	0	
0	53	0	
0	54	0	
0	55	0	
0	56	0	
0	57	0	
0	58	0	
0	59	0	
0	60	0	
0	61	0	
0	62	0	
0	63	0	
0	64	0	
0	65	0	
0	66	0	
0	67	0	
0	68	0	
0	69	0	
0	70	0	
0	71	0	
0	72	0	
0	73	0	
0	74	0	
0	75	0	
0	76	0	
0	77	0	
0	78	0	
0	79	0	
0	80	0	
0	81	0	
0	82	0	
0	83	0	
0	84	0	
0	85	0	
0	86	0	
0	87	0	
0	88	0	
0	89	0	
0	90	0	
0	91	0	
0	92	0	
0	93	0	
0	94	0	
0	95	0	
0	96	0	
0	97	0	
0	98	0	
0	99	0	
0	100	0	
1	0	0	
1	1	0	
1	2	0	
1	3	0	
1	4	0	
1	5	0	
1	6	0	
1	7	0	
1	8	0	
1	9	0	
1	10	0	
1	11	0	
1	12	0	
1	13	0	
1	14	0	
1	15	0	
1	16	0	
1	17	0	
1	18	0	
1	19	0	
1	20	0	
1	21	0	
1	22	0	
1	23	0	
1	24	0	
1	25	0	
1	26	0	
1	27	0	
1	28	0	
1	29	0	
1	30	0	
1	31	0	
1	32	0	
1	33	0	
1	34	0	
1	35	0	
1	36	0	
1	37	0	
1	38	0	
1	39	0	
1	40	0	
1	41	0	
1	42	0	
1	43	0	
1	44	0	
1	45	0	
1	46	0	
1	47	0	
1	48	0	
1	49	0	
1	50	0	
1	51	0	
1	52	0	
1	53	0	
1	54	0	
1	55	0	
1	56	0	
1	57	0	
1	58	0	
1	59	0	
1	60	0	
1	61	0	
1	62	0	
1	63	0	
1	64	0	
1	65	0	
1	66	0	
1	67	0	
1	68	0	
1	69	0	
1	70	0	
1	71	0	
1	72	0	
1	73	0	
1	74	0	
1	75	0	
1	76	0	
1	77	0	
1	78	0	
1	79	0	
1	80	0	
1	81	0	
1	82	0	
1	83	0	
1	84	0	
1	85	0	
1	86	0	
1	87	0	
1	88	0	
1	89	0	
1	90	0	
1	91	0	
1	92	0	
1	93	0	
1	94	0	
1	95	0	
1	96	0	
1	97	0	
1	98	0	
1	99	0	
1	100	0	
2	0	0	
2	1	0	
2	2	0	
2	3	0	
2	4	0	
2	5	0	
2	6	0	
2	7	0	
2	8	0	
2	9	0	
2	10	0	
2	11	0	
2	12	0	
2	13	0	
2	14	0	
2	15	0	
2	16	0	
2	17	0	
2	18	0	
2	19	0	
2	20	0	
2	21	0	
2	22	0	
2	23	0	
2	24	0	
2	25	0	
2	26	0	
2	27	0	
2	28	0	
2	29	0	
2	30	0	
2	31	0	
2	32	0	
2	33	0	
2	34	0	
2	35	0	
2	36	0	
2	37	0	
2	38	0	
2	39	0	
2	40	0	
2	41	0	
2	42	0	
2	43	0	
2	44	0	
2	45	0	
2	46	0	
2	47	0	
2	48	0	
2	49	0	
2	50	0	
2	51	0	
2	52	0	
2	53	0	
2	54	0	
2	55	0	
2	56	0	
2	57	0	
2	58	0	
2	59	0	
2	60	0	
2	61	0	
2	62	0	
2	63	0	
2	64	0	
2	65	0	
2	66	0	
2	67	0	
2	68	0	
2	69	0	
2	70	0	
2	71	0	
2	72	0	
2	73	0	
2	74	0	
2	75	0	
2	76	0	
2	77	0	
2	78	0	
2	79	0	
2	80	0	
2	81	0	
2	82	0	
2	83	0	
2	84	0	
2	85	0	
2	86	0	
2	87	0	
2	88	0	
2	89	0	
2	90	0	
2	91	0	
2	92	0	
2	93	0	
2	94	0	
2	95	0	
2	96	0	
2	97	0	
2	98	0	
2	99	0	
2	100	0	
3	0	0	
3	1	0	
3	2	0	
3	3	0	
3	4	0	
3	5	0	
3	6	0	
3	7	0	
3	8	0	
3	9	0	
3	10	0	
3	11	0	
3	12	0	
3	13	0	
3	14	0	
3	15	0	
3	16	0	
3	17	0	
3	18	0	
3	19	0	
3	20	0	
3	21	0	
3	22	0	
3	23	0	
3	24	0	
3	25	0	
3	26	0	
3	27	0	
3	28	0	
3	29	0	
3	30	0	
3	31	0	
3	32	0	
3	33	0	
3	34	0	
3	35	0	
3	36	0	
3	37	0	
3	38	0	
3	39	0	
3	40	0	
3	41	0	
3	42	0	
3	43	0	
3	44	0	
3	45	0	
3	46	0	
3	47	0	
3	48	0	
3	49	0	
3	50	0	
3	51	0	
3	52	0	
3	53	0	
3	54	0	
3	55	0	
3	56	0	
3	57	0	
3	58	0	
3	59	0	
3	60	0	
3	61	0	
3	62	0	
3	63	0	
3	64	0	
3	65	0	
3	66	0	
3	67	0	
3	68	0	
3	69	0	
3	70	0	
3	71	0	
3	72	0	
3	73	0	
3	74	0	
3	75	0	
3	76	0	
3	77	0	
3	78	0	
3	79	0	
3	80	0	
3	81	0	
3	82	0	
3	83	0	
3	84	0	
3	85	0	
3	86	0	
3	87	0	
3	88	0	
3	89	0	
3	90	0	
3	91	0	
3	92	0	
3	93	0	
3	94	0	
3	95	0	
3	96	0	
3	97	0	
3	98	0	
3	99	0	
3	100	0	
4	0	0	
4	1	0	
4	2	0	
4	3	0	
4	4	0	
4	5	0	
4	6	0	
4	7	0	
4	8	0	
4	9	0	
4	10	0	
4	11	0	
4	12	0	
4	13	0	
4	14	0	
4	15	0	
4	16	0	
4	17	0	
4	18	0	
4	19	0	
4	20	0	
4	21	0	
4	22	0	
4	23	0	
4	24	0	
4	25	0	
4	26	0	
4	27	0	
4	28	0	
4	29	0	
4	30	0	
4	31	0	
4	32	0	
4	33	0	
4	34	0	
4	35	0	
4	36	0	
4	37	0	
4	38	0	
4	39	0	
4	40	0	
4	41	0	
4	42	0	
4	43	0	
4	44	0	
4	45	0	
4	46	0	
4	47	0	
4	48	0	
4	49	0	
4	50	0	
4	51	0	
4	52	0	
4	53	0	
4	54	0	
4	55	0	
4	56	0	
4	57	0	
4	58	0	
4	59	0	
4	60	0	
4	61	0	
4	62	0	
4	63	0	
4	64	0	
4	65	0	
4	66	0	
4	67	0	
4	68	0	
4	69	0	
4	70	0	
4	71	0	
4	72	0	
4	73	0	
4	74	0	
4	75	0	
4	76	0	
4	77	0	
4	78	0	
4	79	0	
4	80	0	
4	81	0	
4	82	0	
4	83	0	
4	84	0	
4	85	0	
4	86	0	
4	87	0	
4	88	0	
4	89	0	
4	90	0	
4	91	0	
4	92	0	
4	93	0	
4	94	0	
4	95	0	
4	96	0	
4	97	0	
4	98	0	
4	99	0	
4	100	0	
5	0	0	
5	1	0	
5	2	0	
5	3	0	
5	4	0	
5	5	0	
5	6	0	
5	7	0	
5	8	0	
5	9	0	
5	10	0	
5	11	0	
5	12	0	
5	13	0	
5	14	0	
5	15	0	
5	16	0	
5	17	0	
5	18	0	
5	19	0	
5	20	0	
5	21	0	
5	22	0	
5	23	0	
5	24	0	
5	25	0	
5	26	0	
5	27	0	
5	28	0	
5	29	0	
5	30	0	
5	31	0	
5	32	0	
5	33	0	
5	34	0	
5	35	0	
5	36	0	
5	37	0	
5	38	0	
5	39	0	
5	40	0	
5	41	0	
5	42	0	
5	43	0	
5	44	0	
5	45	0	
5	46	0	
5	47	0	
5	48	0	
5	49	0	
5	50	0	
5	51	0	
5	52	0	
5	53	0	
5	54	0	
5	55	0	
5	56	0	
5	57	0	
5	58	0	
5	59	0	
5	60	0	
5	61	0	
5	62	0	
5	63	0	
5	64	0	
5	65	0	
5	66	0	
5	67	0	
5	68	0	
5	69	0	
5	70	0	
5	71	0	
5	72	0	
5	73	0	
5	74	0	
5	75	0	
5	76	0	
5	77	0	
5	78	0	
5	79	0	
5	80	0	
5	81	0	
5	82	0	
5	83	0	
5	84	0	
5	85	0	
5	86	0	
5	87	0	
5	88	0	
5	89	0	
5	90	0	
5	91	0	
5	92	0	
5	93	0	
5	94	0	
5	95	0	
5	96	0	
5	97	0	
5	98	0	
5	99	0	
5	100	0	
6	0	0	
6	1	0	
6	2	0	
6	3	0	
6	4	0	
6	5	0	
6	6	0	
6	7	0	
6	8	0	
6	9	0	
6	10	0	
6	11	0	
6	12	0	
6	13	0	
6	14	0	
6	15	0	
6	16	0	
6	17	0	
6	18	0	
6	19	0	
6	20	0	
6	21	0	
6	22	0	
6	23	0	
6	24	0	
6	25	0	
6	26	0	
6	27	0	
6	28	0	
6	29	0	
6	30	0	
6	31	0	
6	32	0	
6	33	0	
6	34	0	
6	35	0	
6	36	0	
6	37	0	
6	38	0	
6	39	0	
6	40	0	
6	41	0	
6	42	0	
6	43	0	
6	44	0	
6	45	0	
6	46	0	
6	47	0	
6	48	0	
6	49	0	
6	50	0	
6	51	0	
6	52	0	
6	53	0	
6	54	0	
6	55	0	
6	56	0	
6	57	0	
6	58	0	
6	59	0	
6	60	0	
6	61	0	
6	62	0	
6	63	0	
6	64	0	
6	65	0	
6	66	0	
6	67	0	
6	68	0	
6	69	0	
6	70	0	
6	71	0	
6	72	0	
6	73	0	
6	74	0	
6	75	0	
6	76	0	
6	77	0	
6	78	0	
6	79	0	
6	80	0	
6	81	0	
6	82	0	
6	83	0	
6	84	0	
6	85	0	
6	86	0	
6	87	0	
6	88	0	
6	89	0	
6	90	0	
6	91	0	
6	92	0	
6	93	0	
6	94	0	
6	95	0	
6	96	0	
6	97	0	
6	98	0	
6	99	0	
6	100	0	
7	0	0	
7	1	0	
7	2	0	
7	3	0	
7	4	0	
7	5	0	
7	6	0	
7	7	0	
7	8	0	
7	9	0	
7	10	0	
7	11	0	
7	12	0	
7	13	0	
7	14	0	
7	15	0	
7	16	0	
7	17	0	
7	18	0	
7	19	0	
7	20	0	
7	21	0	
7	22	0	
7	23	0	
7	24	0	
7	25	0	
7	26	0	
7	27	0	
7	28	0	
7	29	0	
7	30	0	
7	31	0	
7	32	0	
7	33	0	
7	34	0	
7	35	0	
7	36	0	
7	37	0	
7	38	0	
7	39	0	
7	40	0	
7	41	0	
7	42	0	
7	43	0	
7	44	0	
7	45	0	
7	46	0	
7	47	0	
7	48	0	
7	49	0	
7	50	0	
7	51	0	
7	52	0	
7	53	0	
7	54	0	
7	55	0	
7	56	0	
7	57	0	
7	58	0	
7	59	0	
7	60	0	
7	61	0	
7	62	0	
7	63	0	
7	64	0	
7	65	0	
7	66	0	
7	67	0	
7	68	0	
7	69	0	
7	70	0	
7	71	0	
7	72	0	
7	73	0	
7	74	0	
7	75	0	
7	76	0	
7	77	0	
7	78	0	
7	79	0	
7	80	0	
7	81	0	
7	82	0	
7	83	0	
7	84	0	
7	85	0	
7	86	0	
7	87	0	
7	88	0	
7	89	0	
7	90	0	
7	91	0	
7	92	0	
7	93	0	
7	94	0	
7	95	0	
7	96	0	
7	97	0	
7	98	0	
7	99	0	
7	100	0	
8	0	0	
8	1	0	
8	2	0	
8	3	0	
8	4	0	
8	5	0	
8	6	0	
8	7	0	
8	8	0	
8	9	0	
8	10	0	
8	11	0	
8	12	0	
8	13	0	
8	14	0	
8	15	0	
8	16	0	
8	17	0	
8	18	0	
8	19	0	
8	20	0	
8	21	0	
8	22	0	
8	23	0	
8	24	0	
8	25	0	
8	26	0	
8	27	0	
8	28	0	
8	29	0	
8	30	0	
8	31	0	
8	32	0	
8	33	0	
8	34	0	
8	35	0	
8	36	0	
8	37	0	
8	38	0	
8	39	0	
8	40	0	
8	41	0	
8	42	0	
8	43	0	
8	44	0	
8	45	0	
8	46	0	
8	47	0	
8	48	0	
8	49	0	
8	50	0	
8	51	0	
8	52	0	
8	53	0	
8	54	0	
8	55	0	
8	56	0	
8	57	0	
8	58	0	
8	59	0	
8	60	0	
8	61	0	
8	62	0	
8	63	0	
8	64	0	
8	65	0	
8	66	0	
8	67	0	
8	68	0	
8	69	0	
8	70	0	
8	71	0	
8	72	0	
8	73	0	
8	74	0	
8	75	0	
8	76	0	
8	77	0	
8	78	0	
8	79	0	
8	80	0	
8	81	0	
8	82	0	
8	83	0	
8	84	0	
8	85	0	
8	86	0	
8	87	0	
8	88	0	
8	89	0	
8	90	0	
8	91	0	
8	92	0	
8	93	0	
8	94	0	
8	95	0	
8	96	0	
8	97	0	
8	98	0	
8	99	0	
8	100	0	
9	0	0	
9	1	0	
9	2	0	
9	3	0	
9	4	0	
9	5	0	
9	6	0	
9	7	0	
9	8	0	
9	9	0	
9	10	0	
9	11	0	
9	12	0	
9	13	0	
9	14	0	
9	15	0	
9	16	0	
9	17	0	
9	18	0	
9	19	0	
9	20	0	
9	21	0	
9	22	0	
9	23	0	
9	24	0	
9	25	0	
9	26	0	
9	27	0	
9	28	0	
9	29	0	
9	30	0	
9	31	0	
9	32	0	
9	33	0	
9	34	0	
9	35	0	
9	36	0	
9	37	0	
9	38	0	
9	39	0	
9	40	0	
9	41	0	
9	42	0	
9	43	0	
9	44	0	
9	45	0	
9	46	0	
9	47	0	
9	48	0	
9	49	0	
9	50	0	
9	51	0	
9	52	0	
9	53	0	
9	54	0	
9	55	0	
9	56	0	
9	57	0	
9	58	0	
9	59	0	
9	60	0	
9	61	0	
9	62	0	
9	63	0	
9	64	0	
9	65	0	
9	66	0	
9	67	0	
9	68	0	
9	69	0	
9	70	0	
9	71	0	
9	72	0	
9	73	0	
9	74	0	
9	75	0	
9	76	0	
9	77	0	
9	78	0	
9	79	0	
9	80	0	
9	81	0	
9	82	0	
9	83	0	
9	84	0	
9	85	0	
9	86	0	
9	87	0	
9	88	0	
9	89	0	
9	90	0	
9	91	0	
9	92	0	
9	93	0	
9	94	0	
9	95	0	
9	96	0	
9	97	0	
9	98	0	
9	99	0	
9	100	0	
10	0	0	
10	1	0	
10	2	0	
10	3	0	
10	4	0	
10	5	0	
10	6	0	
10	7	0	
10	8	0	
10	9	0	
10	10	0	
10	11	0	
10	12	0	
10	13	0	
10	14	0	
10	15	0	
10	16	0	
10	17	0	
10	18	0	
10	19	0	
10	20	0	
10	21	0	
10	22	0	
10	23	0	
10	24	0	
10	25	0	
10	26	0	
10	27	0	
10	28	0	
10	29	0	
10	30	0	
10	31	0	
10	32	0	
10	33	0	
10	34	0	
10	35	0	
10	36	0	
10	37	0	
10	38	0	
10	39	0	
10	40	0	
10	41	0	
10	42	0	
10	43	0	
10	44	0	
10	45	0	
10	46	0	
10	47	0	
10	48	0	
10	49	0	
10	50	0	
10	51	0	
10	52	0	
10	53	0	
10	54	0	
10	55	0	
10	56	0	
10	57	0	
10	58	0	
10	59	0	
10	60	0	
10	61	0	
10	62	0	
10	63	0	
10	64	0	
10	65	0	
10	66	0	
10	67	0	
10	68	0	
10	69	0	
10	70	0	
10	71	0	
10	72	0	
10	73	0	
10	74	0	
10	75	0	
10	76	0	
10	77	0	
10	78	0	
10	79	0	
10	80	0	
10	81	0	
10	82	0	
10	83	0	
10	84	0	
10	85	0	
10	86	0	
10	87	0	
10	88	0	
10	89	0	
10	90	0	
10	91	0	
10	92	0	
10	93	0	
10	94	0	
10	95	0	
10	96	0	
10	97	0	
10	98	0	
10	99	0	
10	100	0	
11	0	0	
11	1	0	
11	2	0	
11	3	0	
11	4	0	
11	5	0	
11	6	0	
11	7	0	
11	8	0	
11	9	0	
11	10	0	
11	11	0	
11	12	0	
11	13	0	
11	14	0	
11	15	0	
11	16	0	
11	17	0	
11	18	0	
11	19	0	
11	20	0	
11	21	0	
11	22	0	
11	23	0	
11	24	0	
11	25	0	
11	26	0	
11	27	0	
11	28	0	
11	29	0	
11	30	0	
11	31	0	
11	32	0	
11	33	0	
11	34	0	
11	35	0	
11	36	0	
11	37	0	
11	38	0	
11	39	0	
11	40	0	
11	41	0	
11	42	0	
11	43	0	
11	44	0	
11	45	0	
11	46	0	
11	47	0	
11	48	0	
11	49	0	
11	50	0	
11	51	0	
11	52	0	
11	53	0	
11	54	0	
11	55	0	
11	56	0	
11	57	0	
11	58	0	
11	59	0	
11	60	0	
11	61	0	
11	62	0	
11	63	0	
11	64	0	
11	65	0	
11	66	0	
11	67	0	
11	68	0	
11	69	0	
11	70	0	
11	71	0	
11	72	0	
11	73	0	
11	74	0	
11	75	0	
11	76	0	
11	77	0	
11	78	0	
11	79	0	
11	80	0	
11	81	0	
11	82	0	
11	83	0	
11	84	0	
11	85	0	
11	86	0	
11	87	0	
11	88	0	
11	89	0	
11	90	0	
11	91	0	
11	92	0	
11	93	0	
11	94	0	
11	95	0	
11	96	0	
11	97	0	
11	98	0	
11	99	0	
11	100	0	
12	0	0	
12	1	0	
12	2	0	
12	3	0	
12	4	0	
12	5	0	
12	6	0	
12	7	0	
12	8	0	
12	9	0	
12	10	0	
12	11	0	
12	12	0	
12	13	0	
[...]
POINT_DATA	30401
VECTORS d float
-5.48068e-018	-9.84936e-018	0	
-3.09943e-007	-2.92308e-007	0	
-5.45198e-007	-4.41438e-007	0	
-7.47164e-007	-5.35166e-007	0	
-9.04916e-007	-5.75869e-007	0	
-9.93332e-007	-5.77571e-007	0	
-1.18651e-006	-6.97877e-007	0	
-1.31878e-006	-8.05626e-007	0	
-1.41521e-006	-9.10706e-007	0	
-1.53372e-006	-1.02474e-006	0	
-1.63932e-006	-1.15913e-006	0	
-1.75524e-006	-1.31249e-006	0	
-1.87258e-006	-1.46802e-006	0	
-1.9843e-006	-1.62914e-006	0	
-2.09337e-006	-1.79451e-006	0	
-2.20081e-006	-1.96083e-006	0	
-2.3059e-006	-2.12514e-006	0	
-2.40712e-006	-2.28553e-006	0	
-2.50282e-006	-2.44116e-006	0	
-2.59182e-006	-2.59204e-006	0	
-2.67371e-006	-2.73858e-006	0	
-2.74882e-006	-2.88127e-006	0	
-2.81793e-006	-3.02036e-006	0	
-2.88196e-006	-3.15583e-006	0	
-2.94172e-006	-3.28744e-006	0	
-2.99776e-006	-3.41489e-006	0	
-3.05047e-006	-3.53788e-006	0	
-3.1e-006	-3.65616e-006	0	
-3.14644e-006	-3.76957e-006	0	
-3.18977e-006	-3.87804e-006	0	
-3.22991e-006	-3.98153e-006	0	
-3.26676e-006	-4.08009e-006	0	
-3.30023e-006	-4.17381e-006	0	
-3.33026e-006	-4.26279e-006	0	
-3.35676e-006	-4.34715e-006	0	
-3.37968e-006	-4.42705e-006	0	
-3.39898e-006	-4.50262e-006	0	
-3.41463e-006	-4.57399e-006	0	
-3.42662e-006	-4.6413e-006	0	
-3.43494e-006	-4.70466e-006	0	
-3.43959e-006	-4.7642e-006	0	
-3.44055e-006	-4.82001e-006	0	
-3.43782e-006	-4.87222e-006	0	
-3.43141e-006	-4.92093e-006	0	
-3.42132e-006	-4.96622e-006	0	
-3.40751e-006	-5.00821e-006	0	
-3.39e-006	-5.04697e-006	0	
-3.36877e-006	-5.08262e-006	0	
-3.34384e-006	-5.11523e-006	0	
-3.3152e-006	-5.1449e-006	0	
-3.28286e-006	-5.17171e-006	0	
-3.24683e-006	-5.19576e-006	0	
-3.20714e-006	-5.21711e-006	0	
-3.16381e-006	-5.23584e-006	0	
-3.11685e-006	-5.25201e-006	0	
-3.06629e-006	-5.2657e-006	0	
-3.01215e-006	-5.27693e-006	0	
-2.95443e-006	-5.28577e-006	0	
-2.89311e-006	-5.29223e-006	0	
-2.82821e-006	-5.29635e-006	0	
-2.75973e-006	-5.29813e-006	0	
-2.68764e-006	-5.29758e-006	0	
-2.6119e-006	-5.29468e-006	0	
-2.53248e-006	-5.28944e-006	0	
-2.44932e-006	-5.28185e-006	0	
-2.36236e-006	-5.27188e-006	0	
-2.27153e-006	-5.25954e-006	0	
-2.17673e-006	-5.24481e-006	0	
-2.07785e-006	-5.2277e-006	0	
-1.97477e-006	-5.20822e-006	0	
-1.86735e-006	-5.18639e-006	0	
-1.75547e-006	-5.16223e-006	0	
-1.63896e-006	-5.13578e-006	0	
-1.51766e-006	-5.1071e-006	0	
-1.3914e-006	-5.07623e-006	0	
-1.26e-006	-5.04328e-006	0	
-1.12331e-006	-5.00833e-006	0	
-9.81152e-007	-4.97153e-006	0	
-8.33374e-007	-4.93302e-006	0	
-6.79799e-007	-4.89296e-006	0	
-5.20294e-007	-4.85154e-006	0	
-3.54724e-007	-4.809e-006	0	
-1.82964e-007	-4.76559e-006	0	
-4.92717e-009	-4.72158e-006	0	
1.79427e-007	-4.67729e-006	0	
3.70103e-007	-4.63306e-006	0	
5.67057e-007	-4.58928e-006	0	
7.70187e-007	-4.54631e-006	0	
9.79357e-007	-4.50458e-006	0	
1.19435e-006	-4.4645e-006	0	
1.41487e-006	-4.42652e-006	0	
1.64054e-006	-4.39104e-006	0	
1.87091e-006	-4.3585e-006	0	
2.10545e-006	-4.32929e-006	0	
2.34352e-006	-4.30378e-006	0	
2.58438e-006	-4.28227e-006	0	
2.82721e-006	-4.26499e-006	0	
3.07113e-006	-4.25199e-006	0	
3.31523e-006	-4.2432e-006	0	
3.55881e-006	-4.23822e-006	0	
3.80259e-006	-4.23598e-006	0	
-1.80001e-018	-3.0198e-018	0	
-2.48997e-007	-1.49157e-007	0	
-4.93438e-007	-2.85999e-007	0	
-7.09024e-007	-4.02575e-007	0	
-8.8451e-007	-4.94951e-007	0	
-1.00495e-006	-5.81592e-007	0	
-1.17546e-006	-7.02113e-007	0	
-1.29463e-006	-7.36327e-007	0	
-1.35188e-006	-7.37421e-007	0	
-1.48416e-006	-8.97914e-007	0	
-1.57127e-006	-1.03331e-006	0	
-1.68992e-006	-1.18656e-006	0	
-1.80313e-006	-1.34636e-006	0	
-1.91268e-006	-1.5145e-006	0	
-2.02082e-006	-1.68533e-006	0	
-2.12857e-006	-1.85663e-006	0	
-2.23501e-006	-2.02609e-006	0	
-2.33805e-006	-2.19228e-006	0	
-2.43577e-006	-2.3544e-006	0	
-2.52673e-006	-2.51206e-006	0	
-2.61041e-006	-2.66529e-006	0	
-2.68721e-006	-2.81422e-006	0	
-2.75799e-006	-2.95889e-006	0	
-2.82376e-006	-3.09925e-006	0	
-2.88534e-006	-3.23513e-006	0	
-2.94332e-006	-3.36638e-006	0	
-2.99805e-006	-3.49287e-006	0	
-3.04968e-006	-3.61445e-006	0	
-3.09824e-006	-3.73109e-006	0	
-3.1437e-006	-3.84276e-006	0	
-3.18596e-006	-3.94949e-006	0	
-3.22489e-006	-4.05135e-006	0	
-3.26042e-006	-4.14841e-006	0	
-3.29245e-006	-4.24079e-006	0	
-3.3209e-006	-4.32862e-006	0	
-3.3457e-006	-4.41201e-006	0	
-3.36682e-006	-4.4911e-006	0	
-3.38425e-006	-4.56602e-006	0	
-3.39797e-006	-4.63689e-006	0	
-3.40796e-006	-4.70382e-006	0	
-3.41423e-006	-4.76694e-006	0	
-3.41677e-006	-4.82635e-006	0	
-3.41558e-006	-4.88216e-006	0	
-3.41066e-006	-4.93447e-006	0	
-3.40201e-006	-4.98339e-006	0	
-3.38962e-006	-5.029e-006	0	
-3.37347e-006	-5.07141e-006	0	
-3.35357e-006	-5.11069e-006	0	
-3.32992e-006	-5.14694e-006	0	
-3.30253e-006	-5.18025e-006	0	
-3.27139e-006	-5.2107e-006	0	
-3.23654e-006	-5.23838e-006	0	
-3.198e-006	-5.26335e-006	0	
-3.15578e-006	-5.28569e-006	0	
-3.10991e-006	-5.30547e-006	0	
-3.06041e-006	-5.32275e-006	0	
-3.0073e-006	-5.33758e-006	0	
-2.9506e-006	-5.35001e-006	0	
-2.8903e-006	-5.36007e-006	0	
-2.8264e-006	-5.3678e-006	0	
-2.75892e-006	-5.37322e-006	0	
-2.68781e-006	-5.37633e-006	0	
-2.61306e-006	-5.37714e-006	0	
-2.53462e-006	-5.37565e-006	0	
-2.45246e-006	-5.37188e-006	0	
-2.36649e-006	-5.3658e-006	0	
-2.27665e-006	-5.35743e-006	0	
-2.18283e-006	-5.34678e-006	0	
-2.08493e-006	-5.33385e-006	0	
-1.98282e-006	-5.31867e-006	0	
-1.87637e-006	-5.30126e-006	0	
-1.76543e-006	-5.28165e-006	0	
-1.64985e-006	-5.2599e-006	0	
-1.52946e-006	-5.23605e-006	0	
-1.40408e-006	-5.21018e-006	0	
-1.27353e-006	-5.18237e-006	0	
-1.13762e-006	-5.15273e-006	0	
-9.96195e-007	-5.12136e-006	0	
-8.49088e-007	-5.0884e-006	0	
-6.96114e-007	-5.05404e-006	0	
-5.3712e-007	-5.01843e-006	0	
-3.71963e-007	-4.98178e-006	0	
-2.00512e-007	-4.94434e-006	0	
-2.26627e-008	-4.90634e-006	0	
1.61631e-007	-4.86805e-006	0	
3.52389e-007	-4.82979e-006	0	
5.49575e-007	-4.79187e-006	0	
7.531e-007	-4.75464e-006	0	
9.62821e-007	-4.71844e-006	0	
1.17853e-006	-4.68363e-006	0	
1.39994e-006	-4.65058e-006	0	
1.62666e-006	-4.61963e-006	0	
1.85824e-006	-4.59114e-006	0	
2.09414e-006	-4.56544e-006	0	
2.3337e-006	-4.5428e-006	0	
2.57615e-006	-4.52347e-006	0	
2.82063e-006	-4.50763e-006	0	
3.06622e-006	-4.49538e-006	0	
3.31196e-006	-4.48673e-006	0	
3.55702e-006	-4.48161e-006	0	
3.80095e-006	-4.47964e-006	0	
-1.29384e-018	-2.32456e-018	0	
-2.21631e-007	-1.0792e-007	0	
-4.54124e-007	-2.23546e-007	0	
-6.66396e-007	-3.38278e-007	0	
-8.45697e-007	-4.45579e-007	0	
-9.95866e-007	-5.38429e-007	0	
-1.14968e-006	-6.18933e-007	0	
-1.2794e-006	-6.88161e-007	0	
-1.36164e-006	-7.51365e-007	0	
-1.46068e-006	-8.16782e-007	0	
-1.48505e-006	-8.17119e-007	0	
-1.61492e-006	-1.03741e-006	0	
-1.72834e-006	-1.21618e-006	0	
-1.83559e-006	-1.3927e-006	0	
-1.94202e-006	-1.5754e-006	0	
-2.05175e-006	-1.75639e-006	0	
-2.16013e-006	-1.9345e-006	0	
-2.26552e-006	-2.10886e-006	0	
-2.36575e-006	-2.27854e-006	0	
-2.45897e-006	-2.44318e-006	0	
-2.54457e-006	-2.60298e-006	0	
-2.62311e-006	-2.75811e-006	0	
-2.6957e-006	-2.90851e-006	0	
-2.76338e-006	-3.05407e-006	0	
-2.82701e-006	-3.19461e-006	0	
-2.88714e-006	-3.33005e-006	0	
-2.94406e-006	-3.46033e-006	0	
-2.99791e-006	-3.58544e-006	0	
-3.04869e-006	-3.70542e-006	0	
-3.09633e-006	-3.82034e-006	0	
-3.14073e-006	-3.93027e-006	0	
-3.18179e-006	-4.03531e-006	0	
-3.21936e-006	-4.13557e-006	0	
-3.2534e-006	-4.23117e-006	0	
-3.28379e-006	-4.32224e-006	0	
-3.31047e-006	-4.40891e-006	0	
-3.33343e-006	-4.49131e-006	0	
-3.35263e-006	-4.56957e-006	0	
-3.36807e-006	-4.6438e-006	0	
-3.37974e-006	-4.71413e-006	0	
-3.38765e-006	-4.78066e-006	0	
-3.39179e-006	-4.84349e-006	0	
-3.39215e-006	-4.90275e-006	0	
-3.38873e-006	-4.95852e-006	0	
-3.38154e-006	-5.01092e-006	0	
-3.37057e-006	-5.06003e-006	0	
-3.3558e-006	-5.10594e-006	0	
-3.33724e-006	-5.14874e-006	0	
-3.3149e-006	-5.18852e-006	0	
-3.28876e-006	-5.22536e-006	0	
-3.25885e-006	-5.25935e-006	0	
-3.22518e-006	-5.29057e-006	0	
-3.18779e-006	-5.31909e-006	0	
-3.14669e-006	-5.34499e-006	0	
-3.1019e-006	-5.36834e-006	0	
-3.05346e-006	-5.3892e-006	0	
-3.00138e-006	-5.40762e-006	0	
-2.94569e-006	-5.42367e-006	0	
-2.88639e-006	-5.43737e-006	0	
-2.82347e-006	-5.44876e-006	0	
-2.75694e-006	-5.45787e-006	0	
-2.6868e-006	-5.46471e-006	0	
-2.613e-006	-5.4693e-006	0	
-2.53551e-006	-5.47165e-006	0	
-2.45428e-006	-5.47178e-006	0	
-2.36926e-006	-5.46967e-006	0	
-2.28035e-006	-5.46536e-006	0	
-2.18745e-006	-5.45886e-006	0	
-2.09047e-006	-5.45017e-006	0	
-1.98927e-006	-5.43934e-006	0	
-1.88372e-006	-5.42637e-006	0	
-1.77366e-006	-5.41133e-006	0	
-1.65894e-006	-5.39425e-006	0	
-1.53939e-006	-5.3752e-006	0	
-1.41482e-006	-5.35423e-006	0	
-1.28505e-006	-5.33144e-006	0	
-1.14988e-006	-5.30691e-006	0	
-1.00915e-006	-5.28076e-006	0	
-8.62682e-007	-5.2531e-006	0	
-7.10282e-007	-5.22411e-006	0	
-5.51785e-007	-5.19393e-006	0	
-3.87038e-007	-5.16275e-006	0	
-2.15903e-007	-5.13078e-006	0	
-3.82742e-008	-5.09824e-006	0	
1.4591e-007	-5.06536e-006	0	
3.36676e-007	-5.03242e-006	0	
5.34005e-007	-4.99968e-006	0	
7.37809e-007	-4.96746e-006	0	
9.4794e-007	-4.93604e-006	0	
1.1642e-006	-4.90574e-006	0	
1.3863e-006	-4.87686e-006	0	
1.61386e-006	-4.84971e-006	0	
1.84642e-006	-4.82458e-006	0	
2.08342e-006	-4.80175e-006	0	
2.3242e-006	-4.78148e-006	0	
2.56798e-006	-4.76399e-006	0	
2.81388e-006	-4.74946e-006	0	
3.06096e-006	-4.73803e-006	0	
3.30821e-006	-4.72981e-006	0	
3.55466e-006	-4.72478e-006	0	
3.79923e-006	-4.72271e-006	0	
-1.31776e-018	-2.16783e-018	0	
-2.13493e-007	-9.76373e-008	0	
-4.2983e-007	-2.00694e-007	0	
-6.33074e-007	-3.07477e-007	0	
-8.14129e-007	-4.11895e-007	0	
-9.75575e-007	-5.07401e-007	0	
-1.12389e-006	-5.95072e-007	0	
-1.25367e-006	-6.78785e-007	0	
-1.35789e-006	-7.5127e-007	0	
-1.45082e-006	-8.12179e-007	0	
-1.49606e-006	-8.57139e-007	0	
-1.50375e-006	-8.83739e-007	0	
-1.65258e-006	-1.06325e-006	0	
-1.74214e-006	-1.26616e-006	0	
-1.85553e-006	-1.4675e-006	0	
-1.96749e-006	-1.65936e-006	0	
-2.07897e-006	-1.84952e-006	0	
-2.18822e-006	-2.03466e-006	0	
-2.29224e-006	-2.21368e-006	0	
-2.38848e-006	-2.38614e-006	0	
-2.47609e-006	-2.5529e-006	0	
-2.5564e-006	-2.71451e-006	0	
-2.63085e-006	-2.87083e-006	0	
-2.70062e-006	-3.0217e-006	0	
-2.76652e-006	-3.16699e-006	0	
-2.82904e-006	-3.30665e-006	0	
-2.88838e-006	-3.44073e-006	0	
-2.94463e-006	-3.56935e-006	0	
-2.99776e-006	-3.69263e-006	0	
-3.04769e-006	-3.8107e-006	0	
-3.09432e-006	-3.92371e-006	0	
-3.13753e-006	-4.03178e-006	0	
-3.17721e-006	-4.13507e-006	0	
-3.21326e-006	-4.2337e-006	0	
-3.24559e-006	-4.32781e-006	0	
-3.27416e-006	-4.41756e-006	0	
-3.29894e-006	-4.50307e-006	0	
-3.31991e-006	-4.58446e-006	0	
-3.33708e-006	-4.66187e-006	0	
-3.35043e-006	-4.73541e-006	0	
-3.35998e-006	-4.80517e-006	0	
-3.36571e-006	-4.87128e-006	0	
-3.36763e-006	-4.93384e-006	0	
-3.36572e-006	-4.99293e-006	0	
-3.36e-006	-5.04866e-006	0	
-3.35045e-006	-5.10113e-006	0	
-3.33708e-006	-5.15043e-006	0	
-3.31987e-006	-5.19664e-006	0	
-3.29883e-006	-5.23984e-006	0	
-3.27397e-006	-5.28012e-006	0	
-3.24528e-006	-5.31757e-006	0	
-3.2128e-006	-5.35226e-006	0	
-3.17655e-006	-5.38427e-006	0	
-3.13655e-006	-5.41369e-006	0	
-3.09284e-006	-5.44058e-006	0	
-3.04544e-006	-5.46501e-006	0	
-2.99437e-006	-5.48703e-006	0	
-2.93967e-006	-5.5067e-006	0	
-2.88132e-006	-5.52407e-006	0	
-2.81936e-006	-5.53916e-006	0	
-2.75377e-006	-5.55201e-006	0	
-2.68454e-006	-5.56264e-006	0	
-2.61166e-006	-5.57107e-006	0	
-2.53507e-006	-5.57733e-006	0	
-2.45473e-006	-5.58142e-006	0	
-2.37059e-006	-5.58336e-006	0	
-2.28256e-006	-5.58317e-006	0	
-2.19053e-006	-5.58087e-006	0	
-2.09441e-006	-5.57647e-006	0	
-1.99407e-006	-5.57001e-006	0	
-1.88936e-006	-5.56151e-006	0	
-1.78014e-006	-5.55102e-006	0	
-1.66624e-006	-5.53858e-006	0	
-1.54749e-006	-5.52426e-006	0	
-1.4237e-006	-5.50811e-006	0	
-1.29468e-006	-5.4902e-006	0	
-1.16024e-006	-5.47062e-006	0	
-1.02021e-006	-5.44947e-006	0	
-8.74369e-007	-5.42687e-006	0	
-7.2255e-007	-5.40295e-006	0	
-5.64578e-007	-5.37786e-006	0	
-4.00278e-007	-5.35175e-006	0	
-2.29511e-007	-5.32482e-006	0	
-5.21702e-008	-5.29725e-006	0	
1.31821e-007	-5.26926e-006	0	
3.22499e-007	-5.24107e-006	0	
5.19848e-007	-5.21293e-006	0	
7.23789e-007	-5.18508e-006	0	
9.34184e-007	-5.1578e-006	0	
1.15083e-006	-5.13136e-006	0	
1.37345e-006	-5.10603e-006	0	
1.60165e-006	-5.08206e-006	0	
1.83499e-006	-5.05973e-006	0	
2.0729e-006	-5.03928e-006	0	
2.31472e-006	-5.02096e-006	0	
2.55967e-006	-5.005e-006	0	
2.80688e-006	-4.99158e-006	0	
3.05539e-006	-4.9809e-006	0	
3.30412e-006	-4.97309e-006	0	
3.55196e-006	-4.96821e-006	0	
3.79752e-006	-4.96618e-006	0	
-1.33324e-018	-2.11685e-018	0	
-2.0878e-007	-9.52774e-008	0	
-4.14534e-007	-1.94297e-007	0	
-6.09871e-007	-2.96976e-007	0	
-7.89291e-007	-3.99987e-007	0	
-9.52054e-007	-4.998e-007	0	
-1.09949e-006	-5.95756e-007	0	
-1.2291e-006	-6.87876e-007	0	
-1.34015e-006	-7.74092e-007	0	
-1.43232e-006	-8.54205e-007	0	
-1.50022e-006	-9.29052e-007	0	
-1.53493e-006	-1.01273e-006	0	
-1.63399e-006	-1.11503e-006	0	
-1.62175e-006	-1.11601e-006	0	
-1.75763e-006	-1.36125e-006	0	
-1.87526e-006	-1.56933e-006	0	
-1.99054e-006	-1.77027e-006	0	
-2.10285e-006	-1.97122e-006	0	
-2.21469e-006	-2.1615e-006	0	
-2.31509e-006	-2.34227e-006	0	
-2.40476e-006	-2.51674e-006	0	
-2.48684e-006	-2.68533e-006	0	
-2.56339e-006	-2.8476e-006	0	
-2.63543e-006	-3.00359e-006	0	
-2.70391e-006	-3.15337e-006	0	
-2.76913e-006	-3.29694e-006	0	
-2.83113e-006	-3.43454e-006	0	
-2.88995e-006	-3.56642e-006	0	
-2.94558e-006	-3.69278e-006	0	
-2.99791e-006	-3.81382e-006	0	
-3.04685e-006	-3.92972e-006	0	
-3.09228e-006	-4.04064e-006	0	
-3.13409e-006	-4.14675e-006	0	
-3.17218e-006	-4.2482e-006	0	
-3.20648e-006	-4.34515e-006	0	
-3.23693e-006	-4.43776e-006	0	
-3.26352e-006	-4.52617e-006	0	
-3.28625e-006	-4.61051e-006	0	
-3.30512e-006	-4.6909e-006	0	
-3.32015e-006	-4.76748e-006	0	
-3.33133e-006	-4.84032e-006	0	
-3.33866e-006	-4.90953e-006	0	
-3.34214e-006	-4.97523e-006	0	
-3.34174e-006	-5.03749e-006	0	
-3.33749e-006	-5.09643e-006	0	
-3.32937e-006	-5.15214e-006	0	
-3.31737e-006	-5.20471e-006	0	
-3.30152e-006	-5.25423e-006	0	
-3.28179e-006	-5.30077e-006	0	
-3.2582e-006	-5.34441e-006	0	
-3.23073e-006	-5.38523e-006	0	
-3.19943e-006	-5.42334e-006	0	
-3.16431e-006	-5.45879e-006	0	
-3.1254e-006	-5.49169e-006	0	
-3.08273e-006	-5.5221e-006	0	
-3.03634e-006	-5.55008e-006	0	
-2.98625e-006	-5.57571e-006	0	
-2.93249e-006	-5.59902e-006	0	
-2.87508e-006	-5.62008e-006	0	
-2.81402e-006	-5.63892e-006	0	
-2.74933e-006	-5.65555e-006	0	
-2.68098e-006	-5.67002e-006	0	
-2.60896e-006	-5.68236e-006	0	
-2.53322e-006	-5.69257e-006	0	
-2.45374e-006	-5.70069e-006	0	
-2.37043e-006	-5.70672e-006	0	
-2.28323e-006	-5.71069e-006	0	
-2.19203e-006	-5.71263e-006	0	
-2.09673e-006	-5.71254e-006	0	
-1.99721e-006	-5.71047e-006	0	
-1.89331e-006	-5.70644e-006	0	
-1.78489e-006	-5.70049e-006	0	
-1.67178e-006	-5.69266e-006	0	
-1.55382e-006	-5.683e-006	0	
-1.43081e-006	-5.67156e-006	0	
-1.30255e-006	-5.65841e-006	0	
-1.16885e-006	-5.64363e-006	0	
-1.02951e-006	-5.62729e-006	0	
-8.84349e-007	-5.6095e-006	0	
-7.3316e-007	-5.59039e-006	0	
-5.75763e-007	-5.57007e-006	0	
-4.11984e-007	-5.5487e-006	0	
-2.41676e-007	-5.52641e-006	0	
-6.4717e-008	-5.50339e-006	0	
1.18977e-007	-5.47981e-006	0	
3.09444e-007	-5.45588e-006	0	
5.06675e-007	-5.43181e-006	0	
7.10607e-007	-5.40782e-006	0	
9.21109e-007	-5.38414e-006	0	
1.13798e-006	-5.36103e-006	0	
1.36093e-006	-5.3387e-006	0	
1.58961e-006	-5.31741e-006	0	
1.82357e-006	-5.2974e-006	0	
2.06224e-006	-5.27891e-006	0	
2.30498e-006	-5.26219e-006	0	
2.55102e-006	-5.24746e-006	0	
2.79948e-006	-5.23494e-006	0	
3.0494e-006	-5.22484e-006	0	
3.29968e-006	-5.21735e-006	0	
3.54909e-006	-5.21261e-006	0	
3.79612e-006	-5.21068e-006	0	
-1.33357e-018	-2.14927e-018	0	
-2.05404e-007	-9.66843e-008	0	
-4.03932e-007	-1.96293e-007	0	
-5.92392e-007	-2.99194e-007	0	
-7.67675e-007	-4.03872e-007	0	
-9.28323e-007	-5.0843e-007	0	
-1.0737e-006	-6.11809e-007	0	
-1.20285e-006	-7.13427e-007	0	
-1.31476e-006	-8.12551e-007	0	
-1.40851e-006	-9.09116e-007	0	
-1.48313e-006	-1.0014e-006	0	
-1.54643e-006	-1.08285e-006	0	
-1.62167e-006	-1.15892e-006	0	
-1.6387e-006	-1.21977e-006	0	
-1.61284e-006	-1.25812e-006	0	
-1.7752e-006	-1.45852e-006	0	
-1.87925e-006	-1.69323e-006	0	
-2.01008e-006	-1.92099e-006	0	
-2.13338e-006	-2.12407e-006	0	
-2.23934e-006	-2.31438e-006	0	
-2.3295e-006	-2.49753e-006	0	
-2.41436e-006	-2.67338e-006	0	
-2.49355e-006	-2.8407e-006	0	
-2.56809e-006	-3.00115e-006	0	
-2.63951e-006	-3.1548e-006	0	
-2.70777e-006	-3.30158e-006	0	
-2.77254e-006	-3.44211e-006	0	
-2.83408e-006	-3.57685e-006	0	
-2.89234e-006	-3.70594e-006	0	
-2.94718e-006	-3.82965e-006	0	
-2.99849e-006	-3.94819e-006	0	
-3.0462e-006	-4.06173e-006	0	
-3.09018e-006	-4.17044e-006	0	
-3.13034e-006	-4.2745e-006	0	
-3.16661e-006	-4.37407e-006	0	
-3.19894e-006	-4.46932e-006	0	
-3.22733e-006	-4.56041e-006	0	
-3.25179e-006	-4.64749e-006	0	
-3.27234e-006	-4.73069e-006	0	
-3.28902e-006	-4.81012e-006	0	
-3.30182e-006	-4.88587e-006	0	
-3.31075e-006	-4.95803e-006	0	
-3.31577e-006	-5.02671e-006	0	
-3.31689e-006	-5.09201e-006	0	
-3.31409e-006	-5.15403e-006	0	
-3.30738e-006	-5.21287e-006	0	
-3.29677e-006	-5.26861e-006	0	
-3.28225e-006	-5.32134e-006	0	
-3.26383e-006	-5.37113e-006	0	
-3.24149e-006	-5.41806e-006	0	
-3.21525e-006	-5.46221e-006	0	
-3.18511e-006	-5.50367e-006	0	
-3.1511e-006	-5.54253e-006	0	
-3.11324e-006	-5.57888e-006	0	
-3.07158e-006	-5.61278e-006	0	
-3.02616e-006	-5.64432e-006	0	
-2.977e-006	-5.67355e-006	0	
-2.92415e-006	-5.70053e-006	0	
-2.86762e-006	-5.72529e-006	0	
-2.80743e-006	-5.7479e-006	0	
-2.74358e-006	-5.76836e-006	0	
-2.67607e-006	-5.78672e-006	0	
-2.60487e-006	-5.803e-006	0	
-2.52994e-006	-5.81722e-006	0	
-2.45125e-006	-5.8294e-006	0	
-2.36873e-006	-5.83956e-006	0	
-2.28232e-006	-5.84773e-006	0	
-2.19191e-006	-5.85394e-006	0	
-2.0974e-006	-5.8582e-006	0	
-1.99866e-006	-5.86053e-006	0	
-1.89555e-006	-5.86096e-006	0	
-1.78792e-006	-5.85953e-006	0	
-1.67561e-006	-5.85626e-006	0	
-1.55844e-006	-5.85119e-006	0	
-1.43621e-006	-5.84438e-006	0	
-1.30874e-006	-5.83587e-006	0	
-1.17581e-006	-5.82573e-006	0	
-1.03723e-006	-5.81403e-006	0	
-8.92802e-007	-5.80084e-006	0	
-7.42314e-007	-5.78629e-006	0	
-5.85575e-007	-5.77047e-006	0	
-4.22416e-007	-5.7535e-006	0	
-2.52673e-007	-5.73552e-006	0	
-7.62143e-008	-5.71667e-006	0	
1.07044e-007	-5.69712e-006	0	
2.97155e-007	-5.67702e-006	0	
4.94121e-007	-5.65658e-006	0	
6.97887e-007	-5.63598e-006	0	
9.08328e-007	-5.61545e-006	0	
1.12525e-006	-5.59518e-006	0	
1.34839e-006	-5.57541e-006	0	
1.57739e-006	-5.55637e-006	0	
1.81183e-006	-5.53829e-006	0	
2.05114e-006	-5.52141e-006	0	
2.29472e-006	-5.50596e-006	0	
2.54179e-006	-5.49219e-006	0	
2.7915e-006	-5.48035e-006	0	
3.04288e-006	-5.47067e-006	0	
3.29483e-006	-5.4634e-006	0	
3.54608e-006	-5.45874e-006	0	
3.7951e-006	-5.4569e-006	0	
-1.32546e-018	-2.2239e-018	0	
-2.02131e-007	-1.00197e-007	0	
-3.94878e-007	-2.03256e-007	0	
-5.7721e-007	-3.0952e-007	0	
-7.47468e-007	-4.18281e-007	0	
-9.04294e-007	-5.28456e-007	0	
-1.04675e-006	-6.39163e-007	0	
-1.17402e-006	-7.49717e-007	0	
-1.28558e-006	-8.5936e-007	0	
-1.38111e-006	-9.67153e-007	0	
-1.46202e-006	-1.07079e-006	0	
-1.53523e-006	-1.16859e-006	0	
-1.60089e-006	-1.26402e-006	0	
-1.64674e-006	-1.3591e-006	0	
-1.65693e-006	-1.4713e-006	0	
-1.76556e-006	-1.61267e-006	0	
-1.72628e-006	-1.61479e-006	0	
-1.90266e-006	-1.88656e-006	0	
-2.05327e-006	-2.11077e-006	0	
-2.16101e-006	-2.30478e-006	0	
-2.24906e-006	-2.50005e-006	0	
-2.34008e-006	-2.68299e-006	0	
-2.42284e-006	-2.85231e-006	0	
-2.49845e-006	-3.01598e-006	0	
-2.57402e-006	-3.17233e-006	0	
-2.64567e-006	-3.32073e-006	0	
-2.71305e-006	-3.46349e-006	0	
-2.77735e-006	-3.60068e-006	0	
-2.83837e-006	-3.73206e-006	0	
-2.89568e-006	-3.85807e-006	0	
-2.94942e-006	-3.97899e-006	0	
-2.99947e-006	-4.0949e-006	0	
-3.04567e-006	-4.20597e-006	0	
-3.08792e-006	-4.3124e-006	0	
-3.12616e-006	-4.41436e-006	0	
-3.16036e-006	-4.51202e-006	0	
-3.19051e-006	-4.60558e-006	0	
-3.21667e-006	-4.6952e-006	0	
-3.23887e-006	-4.781e-006	0	
-3.25716e-006	-4.86311e-006	0	
-3.27158e-006	-4.94159e-006	0	
-3.28208e-006	-5.01654e-006	0	
-3.28864e-006	-5.08805e-006	0	
-3.29125e-006	-5.15624e-006	0	
-3.28989e-006	-5.22122e-006	0	
-3.28457e-006	-5.28307e-006	0	