# vtk DataFile Version 4.1
vtk output
ASCII
DATASET UNSTRUCTURED_GRID

POINTS	441	float
0	0	0	
0	0.05	0	
0	0.1	0	
0	0.15	0	
0	0.2	0	
0	0.25	0	
0	0.3	0	
0	0.35	0	
0	0.4	0	
0	0.45	0	
0	0.5	0	
0	0.55	0	
0	0.6	0	
0	0.65	0	
0	0.7	0	
0	0.75	0	
0	0.8	0	
0	0.85	0	
0	0.9	0	
0	0.95	0	
0	1	0	
0.05	0	0	
0.05	0.05	0	
0.05	0.1	0	
0.05	0.15	0	
0.05	0.2	0	
0.05	0.25	0	
0.05	0.3	0	
0.05	0.35	0	
0.05	0.4	0	
0.05	0.45	0	
0.05	0.5	0	
0.05	0.55	0	
0.05	0.6	0	
0.05	0.65	0	
0.05	0.7	0	
0.05	0.75	0	
0.05	0.8	0	
0.05	0.85	0	
0.05	0.9	0	
0.05	0.95	0	
0.05	1	0	
0.1	0	0	
0.1	0.05	0	
0.1	0.1	0	
0.1	0.15	0	
0.1	0.2	0	
0.1	0.25	0	
0.1	0.3	0	
0.1	0.35	0	
0.1	0.4	0	
0.1	0.45	0	
0.1	0.5	0	
0.1	0.55	0	
0.1	0.6	0	
0.1	0.65	0	
0.1	0.7	0	
0.1	0.75	0	
0.1	0.8	0	
0.1	0.85	0	
0.1	0.9	0	
0.1	0.95	0	
0.1	1	0	
0.15	0	0	
0.15	0.05	0	
0.15	0.1	0	
0.15	0.15	0	
0.15	0.2	0	
0.15	0.25	0	
0.15	0.3	0	
0.15	0.35	0	
0.15	0.4	0	
0.15	0.45	0	
0.15	0.5	0	
0.15	0.55	0	
0.15	0.6	0	
0.15	0.65	0	
0.15	0.7	0	
0.15	0.75	0	
0.15	0.8	0	
0.15	0.85	0	
0.15	0.9	0	
0.15	0.95	0	
0.15	1	0	
0.2	0	0	
0.2	0.05	0	
0.2	0.1	0	
0.2	0.15	0	
0.2	0.2	0	
0.2	0.25	0	
0.2	0.3	0	
0.2	0.35	0	
0.2	0.4	0	
0.2	0.45	0	
0.2	0.5	0	
0.2	0.55	0	
0.2	0.6	0	
0.2	0.65	0	
0.2	0.7	0	
0.2	0.75	0	
0.2	0.8	0	
0.2	0.85	0	
0.2	0.9	0	
0.2	0.95	0	
0.2	1	0	
0.25	0	0	
0.25	0.05	0	
0.25	0.1	0	
0.25	0.15	0	
0.25	0.2	0	
0.25	0.25	0	
0.25	0.3	0	
0.25	0.35	0	
0.25	0.4	0	
0.25	0.45	0	
0.25	0.5	0	
0.25	0.55	0	
0.25	0.6	0	
0.25	0.65	0	
0.25	0.7	0	
0.25	0.75	0	
0.25	0.8	0	
0.25	0.85	0	
0.25	0.9	0	
0.25	0.95	0	
0.25	1	0	
0.3	0	0	
0.3	0.05	0	
0.3	0.1	0	
0.3	0.15	0	
0.3	0.2	0	
0.3	0.25	0	
0.3	0.3	0	
0.3	0.35	0	
0.3	0.4	0	
0.3	0.45	0	
0.3	0.5	0	
0.3	0.55	0	
0.3	0.6	0	
0.3	0.65	0	
0.3	0.7	0	
0.3	0.75	0	
0.3	0.8	0	
0.3	0.85	0	
0.3	0.9	0	
0.3	0.95	0	
0.3	1	0	
0.35	0	0	
0.35	0.05	0	
0.35	0.1	0	
0.35	0.15	0	
0.35	0.2	0	
0.35	0.25	0	
0.35	0.3	0	
0.35	0.35	0	
0.35	0.4	0	
0.35	0.45	0	
0.35	0.5	0	
0.35	0.55	0	
0.35	0.6	0	
0.35	0.65	0	
0.35	0.7	0	
0.35	0.75	0	
0.35	0.8	0	
0.35	0.85	0	
0.35	0.9	0	
0.35	0.95	0	
0.35	1	0	
0.4	0	0	
0.4	0.05	0	
0.4	0.1	0	
0.4	0.15	0	
0.4	0.2	0	
0.4	0.25	0	
0.4	0.3	0	
0.4	0.35	0	
0.4	0.4	0	
0.4	0.45	0	
0.4	0.5	0	
0.4	0.55	0	
0.4	0.6	0	
0.4	0.65	0	
0.4	0.7	0	
0.4	0.75	0	
0.4	0.8	0	
0.4	0.85	0	
0.4	0.9	0	
0.4	0.95	0	
0.4	1	0	
0.45	0	0	
0.45	0.05	0	
0.45	0.1	0	
0.45	0.15	0	
0.45	0.2	0	
0.45	0.25	0	
0.45	0.3	0	
0.45	0.35	0	
0.45	0.4	0	
0.45	0.45	0	
0.45	0.5	0	
0.45	0.55	0	
0.45	0.6	0	
0.45	0.65	0	
0.45	0.7	0	
0.45	0.75	0	
0.45	0.8	0	
0.45	0.85	0	
0.45	0.9	0	
0.45	0.95	0	
0.45	1	0	
0.5	0	0	
0.5	0.05	0	
0.5	0.1	0	
0.5	0.15	0	
0.5	0.2	0	
0.5	0.25	0	
0.5	0.3	0	
0.5	0.35	0	
0.5	0.4	0	
0.5	0.45	0	
0.5	0.5	0	
0.5	0.55	0	
0.5	0.6	0	
0.5	0.65	0	
0.5	0.7	0	
0.5	0.75	0	
0.5	0.8	0	
0.5	0.85	0	
0.5	0.9	0	
0.5	0.95	0	
0.5	1	0	
0.55	0	0	
0.55	0.05	0	
0.55	0.1	0	
0.55	0.15	0	
0.55	0.2	0	
0.55	0.25	0	
0.55	0.3	0	
0.55	0.35	0	
0.55	0.4	0	
0.55	0.45	0	
0.55	0.5	0	
0.55	0.55	0	
0.55	0.6	0	
0.55	0.65	0	
0.55	0.7	0	
0.55	0.75	0	
0.55	0.8	0	
0.55	0.85	0	
0.55	0.9	0	
0.55	0.95	0	
0.55	1	0	
0.6	0	0	
0.6	0.05	0	
0.6	0.1	0	
0.6	0.15	0	
0.6	0.2	0	
0.6	0.25	0	
0.6	0.3	0	
0.6	0.35	0	
0.6	0.4	0	
0.6	0.45	0	
0.6	0.5	0	
0.6	0.55	0	
0.6	0.6	0	
0.6	0.65	0	
0.6	0.7	0	
0.6	0.75	0	
0.6	0.8	0	
0.6	0.85	0	
0.6	0.9	0	
0.6	0.95	0	
0.6	1	0	
0.65	0	0	
0.65	0.05	0	
0.65	0.1	0	
0.65	0.15	0	
0.65	0.2	0	
0.65	0.25	0	
0.65	0.3	0	
0.65	0.35	0	
0.65	0.4	0	
0.65	0.45	0	
0.65	0.5	0	
0.65	0.55	0	
0.65	0.6	0	
0.65	0.65	0	
0.65	0.7	0	
0.65	0.75	0	
0.65	0.8	0	
0.65	0.85	0	
0.65	0.9	0	
0.65	0.95	0	
0.65	1	0	
0.7	0	0	
0.7	0.05	0	
0.7	0.1	0	
0.7	0.15	0	
0.7	0.2	0	
0.7	0.25	0	
0.7	0.3	0	
0.7	0.35	0	
0.7	0.4	0	
0.7	0.45	0	
0.7	0.5	0	
0.7	0.55	0	
0.7	0.6	0	
0.7	0.65	0	
0.7	0.7	0	
0.7	0.75	0	
0.7	0.8	0	
0.7	0.85	0	
0.7	0.9	0	
0.7	0.95	0	
0.7	1	0	
0.75	0	0	
0.75	0.05	0	
0.75	0.1	0	
0.75	0.15	0	
0.75	0.2	0	
0.75	0.25	0	
0.75	0.3	0	
0.75	0.35	0	
0.75	0.4	0	
0.75	0.45	0	
0.75	0.5	0	
0.75	0.55	0	
0.75	0.6	0	
0.75	0.65	0	
0.75	0.7	0	
0.75	0.75	0	
0.75	0.8	0	
0.75	0.85	0	
0.75	0.9	0	
0.75	0.95	0	
0.75	1	0	
0.8	0	0	
0.8	0.05	0	
0.8	0.1	0	
0.8	0.15	0	
0.8	0.2	0	
0.8	0.25	0	
0.8	0.3	0	
0.8	0.35	0	
0.8	0.4	0	
0.8	0.45	0	
0.8	0.5	0	
0.8	0.55	0	
0.8	0.6	0	
0.8	0.65	0	
0.8	0.7	0	
0.8	0.75	0	
0.8	0.8	0	
0.8	0.85	0	
0.8	0.9	0	
0.8	0.95	0	
0.8	1	0	
0.85	0	0	
0.85	0.05	0	
0.85	0.1	0	
0.85	0.15	0	
0.85	0.2	0	
0.85	0.25	0	
0.85	0.3	0	
0.85	0.35	0	
0.85	0.4	0	
0.85	0.45	0	
0.85	0.5	0	
0.85	0.55	0	
0.85	0.6	0	
0.85	0.65	0	
0.85	0.7	0	
0.85	0.75	0	
0.85	0.8	0	
0.85	0.85	0	
0.85	0.9	0	
0.85	0.95	0	
0.85	1	0	
0.9	0	0	
0.9	0.05	0	
0.9	0.1	0	
0.9	0.15	0	
0.9	0.2	0	
0.9	0.25	0	
0.9	0.3	0	
0.9	0.35	0	
0.9	0.4	0	
0.9	0.45	0	
0.9	0.5	0	
0.9	0.55	0	
0.9	0.6	0	
0.9	0.65	0	
0.9	0.7	0	
0.9	0.75	0	
0.9	0.8	0	
0.9	0.85	0	
0.9	0.9	0	
0.9	0.95	0	
0.9	1	0	
0.95	0	0	
0.95	0.05	0	
0.95	0.1	0	
0.95	0.15	0	
0.95	0.2	0	
0.95	0.25	0	
0.95	0.3	0	
0.95	0.35	0	
0.95	0.4	0	
0.95	0.45	0	
0.95	0.5	0	
0.95	0.55	0	
0.95	0.6	0	
0.95	0.65	0	
0.95	0.7	0	
0.95	0.75	0	
0.95	0.8	0	
0.95	0.85	0	
0.95	0.9	0	
0.95	0.95	0	
0.95	1	0	
1	0	0	
1	0.05	0	
1	0.1	0	
1	0.15	0	
1	0.2	0	
1	0.25	0	
1	0.3	0	
1	0.35	0	
1	0.4	0	
1	0.45	0	
1	0.5	0	
1	0.55	0	
1	0.6	0	
1	0.65	0	
1	0.7	0	
1	0.75	0	
1	0.8	0	
1	0.85	0	
1	0.9	0	
1	0.95	0	
1	1	0	

CELLS 800	3200
3	23	3	2	
3	25	5	4	
3	21	1	0	
3	24	4	3	
3	26	6	5	
3	44	24	23	
3	42	22	21	
3	45	25	24	
3	46	26	25	
3	47	27	26	
3	65	45	44	
3	63	43	42	
3	66	46	45	
3	67	47	46	
3	86	66	65	
3	68	48	47	
3	84	64	63	
3	87	67	66	
3	88	68	67	
3	89	69	68	
3	105	85	84	
3	107	87	86	
3	110	90	89	
3	22	2	1	
3	27	7	6	
3	22	1	21	
3	28	8	7	
3	23	2	22	
3	29	9	8	
3	24	3	23	
3	30	10	9	
3	25	4	24	
3	31	11	10	
3	26	5	25	
3	32	12	11	
3	27	6	26	
3	33	13	12	
3	28	7	27	
3	34	14	13	
3	29	8	28	
3	35	15	14	
3	30	9	29	
3	36	16	15	
3	31	10	30	
3	37	17	16	
3	32	11	31	
3	38	18	17	
3	33	12	32	
3	39	19	18	
3	34	13	33	
3	40	20	19	
3	35	14	34	
3	108	88	87	
3	36	15	35	
3	109	89	88	
3	37	16	36	
3	126	106	105	
3	38	17	37	
3	128	108	107	
3	39	18	38	
3	149	129	128	
3	40	19	39	
3	41	20	40	
3	43	23	22	
3	48	28	27	
3	43	22	42	
3	49	29	28	
3	44	23	43	
3	50	30	29	
3	45	24	44	
3	51	31	30	
3	46	25	45	
3	52	32	31	
3	47	26	46	
3	53	33	32	
3	48	27	47	
3	54	34	33	
3	49	28	48	
3	55	35	34	
3	50	29	49	
3	56	36	35	
3	51	30	50	
3	57	37	36	
3	52	31	51	
3	58	38	37	
3	53	32	52	
3	59	39	38	
3	54	33	53	
3	60	40	39	
3	55	34	54	
3	61	41	40	
3	56	35	55	
3	129	109	108	
3	57	36	56	
3	130	110	109	
3	58	37	57	
3	131	111	110	
3	59	38	58	
3	147	127	126	
3	60	39	59	
3	170	150	149	
3	61	40	60	
3	62	41	61	
3	64	44	43	
3	69	49	48	
3	64	43	63	
3	70	50	49	
3	65	44	64	
3	71	51	50	
3	66	45	65	
3	72	52	51	
3	67	46	66	
3	73	53	52	
3	68	47	67	
3	74	54	53	
3	69	48	68	
3	75	55	54	
3	70	49	69	
3	76	56	55	
3	71	50	70	
3	77	57	56	
3	72	51	71	
3	78	58	57	
3	73	52	72	
3	79	59	58	
3	74	53	73	
3	80	60	59	
3	75	54	74	
3	81	61	60	
3	76	55	75	
3	82	62	61	
3	77	56	76	
3	150	130	129	
3	78	57	77	
3	151	131	130	
3	79	58	78	
3	152	132	131	
3	80	59	79	
3	168	148	147	
3	81	60	80	
3	189	169	168	
3	82	61	81	
3	83	62	82	
3	85	65	64	
3	90	70	69	
3	85	64	84	
3	91	71	70	
3	86	65	85	
3	92	72	71	
3	87	66	86	
3	93	73	72	
3	88	67	87	
3	94	74	73	
3	89	68	88	
3	95	75	74	
3	90	69	89	
3	96	76	75	
3	91	70	90	
3	97	77	76	
3	92	71	91	
3	98	78	77	
3	93	72	92	
3	99	79	78	
3	94	73	93	
3	100	80	79	
3	95	74	94	
3	101	81	80	
3	96	75	95	
3	102	82	81	
3	97	76	96	
3	103	83	82	
3	98	77	97	
3	171	151	150	
3	99	78	98	
3	172	152	151	
3	100	79	99	
3	173	153	152	
3	101	80	100	
3	192	172	171	
3	102	81	101	
3	214	194	193	
3	103	82	102	
3	104	83	103	
3	106	86	85	
3	111	91	90	
3	106	85	105	
3	112	92	91	
3	107	86	106	
3	113	93	92	
3	108	87	107	
3	114	94	93	
3	109	88	108	
3	115	95	94	
3	110	89	109	
3	116	96	95	
3	111	90	110	
3	117	97	96	
3	112	91	111	
3	118	98	97	
3	113	92	112	
3	119	99	98	
3	114	93	113	
3	120	100	99	
3	115	94	114	
3	121	101	100	
3	116	95	115	
3	122	102	101	
3	117	96	116	
3	123	103	102	
3	118	97	117	
3	191	171	170	
3	119	98	118	
3	124	104	103	
3	120	99	119	
3	193	173	172	
3	121	100	120	
3	210	190	189	
3	122	101	121	
3	213	193	192	
3	123	102	122	
3	252	232	231	
3	124	103	123	
3	125	104	124	
3	127	107	106	
3	132	112	111	
3	127	106	126	
3	133	113	112	
3	128	107	127	
3	134	114	113	
3	129	108	128	
3	135	115	114	
3	130	109	129	
3	136	116	115	
3	131	110	130	
3	137	117	116	
3	132	111	131	
3	138	118	117	
3	133	112	132	
3	139	119	118	
3	134	113	133	
3	140	120	119	
3	135	114	134	
3	141	121	120	
3	136	115	135	
3	142	122	121	
3	137	116	136	
3	143	123	122	
3	138	117	137	
3	212	192	191	
3	139	118	138	
3	144	124	123	
3	140	119	139	
3	145	125	124	
3	141	120	140	
3	231	211	210	
3	142	121	141	
3	234	214	213	
3	143	122	142	
3	235	215	214	
3	144	123	143	
3	273	253	252	
3	145	124	144	
3	146	125	145	
3	148	128	127	
3	153	133	132	
3	148	127	147	
3	154	134	133	
3	149	128	148	
3	155	135	134	
3	150	129	149	
3	156	136	135	
3	151	130	150	
3	157	137	136	
3	152	131	151	
3	158	138	137	
3	153	132	152	
3	159	139	138	
3	154	133	153	
3	160	140	139	
3	155	134	154	
3	161	141	140	
3	156	135	155	
3	162	142	141	
3	157	136	156	
3	163	143	142	
3	158	137	157	
3	233	213	212	
3	159	138	158	
3	164	144	143	
3	160	139	159	
3	165	145	144	
3	161	140	160	
3	166	146	145	
3	162	141	161	
3	255	235	234	
3	163	142	162	
3	204	184	183	
3	164	143	163	
3	256	236	235	
3	165	144	164	
3	277	257	256	
3	166	145	165	
3	167	146	166	
3	169	149	148	
3	174	154	153	
3	169	148	168	
3	175	155	154	
3	170	149	169	
3	176	156	155	
3	171	150	170	
3	177	157	156	
3	172	151	171	
3	178	158	157	
3	173	152	172	
3	179	159	158	
3	174	153	173	
3	180	160	159	
3	175	154	174	
3	181	161	160	
3	176	155	175	
3	182	162	161	
3	177	156	176	
3	183	163	162	
3	178	157	177	
3	254	234	233	
3	179	158	178	
3	184	164	163	
3	180	159	179	
3	185	165	164	
3	181	160	180	
3	186	166	165	
3	182	161	181	
3	187	167	166	
3	183	162	182	
3	276	256	255	
3	184	163	183	
3	294	274	273	
3	185	164	184	
3	296	276	275	
3	186	165	185	
3	298	278	277	
3	187	166	186	
3	188	167	187	
3	190	170	169	
3	194	174	173	
3	190	169	189	
3	195	175	174	
3	191	170	190	
3	196	176	175	
3	192	171	191	
3	197	177	176	
3	193	172	192	
3	198	178	177	
3	194	173	193	
3	199	179	178	
3	195	174	194	
3	200	180	179	
3	196	175	195	
3	201	181	180	
3	197	176	196	
3	202	182	181	
3	198	177	197	
3	203	183	182	
3	199	178	198	
3	275	255	254	
3	200	179	199	
3	205	185	184	
3	201	180	200	
3	206	186	185	
3	202	181	201	
3	207	187	186	
3	203	182	202	
3	208	188	187	
3	204	183	203	
3	297	277	276	
3	205	184	204	
3	315	295	294	
3	206	185	205	
3	317	297	296	
3	207	186	206	
3	208	187	207	
3	209	188	208	
3	211	191	190	
3	215	195	194	
3	211	190	210	
3	216	196	195	
3	212	191	211	
3	217	197	196	
3	213	192	212	
3	218	198	197	
3	214	193	213	
3	219	199	198	
3	215	194	214	
3	220	200	199	
3	216	195	215	
3	221	201	200	
3	217	196	216	
3	222	202	201	
3	218	197	217	
3	223	203	202	
3	219	198	218	
3	224	204	203	
3	220	199	219	
3	225	205	204	
3	221	200	220	
3	226	206	205	
3	222	201	221	
3	227	207	206	
3	223	202	222	
3	228	208	207	
3	224	203	223	
3	229	209	208	
3	225	204	224	
3	318	298	297	
3	226	205	225	
3	336	316	315	
3	227	206	226	
3	319	299	298	
3	228	207	227	
3	338	318	317	
3	229	208	228	
3	230	209	229	
3	232	212	211	
3	236	216	215	
3	232	211	231	
3	237	217	216	
3	233	212	232	
3	238	218	217	
3	234	213	233	
3	239	219	218	
3	235	214	234	
3	240	220	219	
3	236	215	235	
3	241	221	220	
3	237	216	236	
3	242	222	221	
3	238	217	237	
3	243	223	222	
3	239	218	238	
3	244	224	223	
3	240	219	239	
3	245	225	224	
3	241	220	240	
3	246	226	225	
3	242	221	241	
3	247	227	226	
3	243	222	242	
3	248	228	227	
3	244	223	243	
3	249	229	228	
3	245	224	244	
3	250	230	229	
3	246	225	245	
3	339	319	318	
3	247	226	246	
3	357	337	336	
3	248	227	247	
3	340	320	319	
3	249	228	248	
3	378	358	357	
3	250	229	249	
3	251	230	250	
3	253	233	232	
3	257	237	236	
3	253	232	252	
3	258	238	237	
3	254	233	253	
3	259	239	238	
3	255	234	254	
3	260	240	239	
3	256	235	255	
3	261	241	240	
3	257	236	256	
3	262	242	241	
3	258	237	257	
3	263	243	242	
3	259	238	258	
3	264	244	243	
3	260	239	259	
3	265	245	244	
3	261	240	260	
3	266	246	245	
3	262	241	261	
3	267	247	246	
3	263	242	262	
3	268	248	247	
3	264	243	263	
3	269	249	248	
3	265	244	264	
3	270	250	249	
3	266	245	265	
3	271	251	250	
3	267	246	266	
3	359	339	338	
3	268	247	267	
3	360	340	339	
3	269	248	268	
3	361	341	340	
3	270	249	269	
3	399	379	378	
3	271	250	270	
3	272	251	271	
3	274	254	253	
3	278	258	257	
3	274	253	273	
3	279	259	258	
3	275	254	274	
3	280	260	259	
3	276	255	275	
3	281	261	260	
3	277	256	276	
3	282	262	261	
3	278	257	277	
3	283	263	262	
3	279	258	278	
3	284	264	263	
3	280	259	279	
3	285	265	264	
3	281	260	280	
3	286	266	265	
3	282	261	281	
3	287	267	266	
3	283	262	282	
3	288	268	267	
3	284	263	283	
3	289	269	268	
3	285	264	284	
3	290	270	269	
3	286	265	285	
3	291	271	270	
3	287	266	286	
3	292	272	271	
3	288	267	287	
3	380	360	359	
3	289	268	288	
3	381	361	360	
3	290	269	289	
3	382	362	361	
3	291	270	290	
3	401	381	380	
3	292	271	291	
3	293	272	292	
3	295	275	274	
3	299	279	278	
3	295	274	294	
3	300	280	279	
3	296	275	295	
3	301	281	280	
3	297	276	296	
3	302	282	281	
3	298	277	297	
3	303	283	282	
3	299	278	298	
3	304	284	283	
3	300	279	299	
3	305	285	284	
3	301	280	300	
3	306	286	285	
3	302	281	301	
3	307	287	286	
3	303	282	302	
3	308	288	287	
3	304	283	303	
3	309	289	288	
3	305	284	304	
3	310	290	289	
3	306	285	305	
3	311	291	290	
3	307	286	306	
3	312	292	291	
3	308	287	307	
3	313	293	292	
3	309	288	308	
3	420	400	399	
3	310	289	309	
3	402	382	381	
3	311	290	310	
3	403	383	382	
3	312	291	311	
3	421	401	400	
3	313	292	312	
3	314	293	313	
3	316	296	295	
3	320	300	299	
3	316	295	315	
3	321	301	300	
3	317	296	316	
3	322	302	301	
3	318	297	317	
3	323	303	302	
3	319	298	318	
3	324	304	303	
3	320	299	319	
3	325	305	304	
3	321	300	320	
3	326	306	305	
3	322	301	321	
3	327	307	306	
3	323	302	322	
3	328	308	307	
3	324	303	323	
3	329	309	308	
3	325	304	324	
3	330	310	309	
3	326	305	325	
3	331	311	310	
3	327	306	326	
3	332	312	311	
3	328	307	327	
3	333	313	312	
3	329	308	328	
3	334	314	313	
3	330	309	329	
3	331	310	330	
3	332	311	331	
3	333	312	332	
3	334	313	333	
3	335	314	334	
3	337	317	316	
3	341	321	320	
3	337	316	336	
3	342	322	321	
3	338	317	337	
3	343	323	322	
3	339	318	338	
3	344	324	323	
3	340	319	339	
3	345	325	324	
3	341	320	340	
3	346	326	325	
3	342	321	341	
3	347	327	326	
3	343	322	342	
3	348	328	327	
3	344	323	343	
3	349	329	328	
3	345	324	344	
3	350	330	329	
3	346	325	345	
3	351	331	330	
3	347	326	346	
3	352	332	331	
3	348	327	347	
3	353	333	332	
3	349	328	348	
3	354	334	333	
3	350	329	349	
3	355	335	334	
3	351	330	350	
3	352	331	351	
3	353	332	352	
3	354	333	353	
3	355	334	354	
3	356	335	355	
3	358	338	337	
3	362	342	341	
3	358	337	357	
3	363	343	342	
3	359	338	358	
3	364	344	343	
3	360	339	359	
3	365	345	344	
3	361	340	360	
3	366	346	345	
3	362	341	361	
3	367	347	346	
3	363	342	362	
3	368	348	347	
3	364	343	363	
3	369	349	348	
3	365	344	364	
3	370	350	349	
3	366	345	365	
3	371	351	350	
3	367	346	366	
3	372	352	351	
3	368	347	367	
3	373	353	352	
3	369	348	368	
3	374	354	353	
3	370	349	369	
3	375	355	354	
3	371	350	370	
3	376	356	355	
3	372	351	371	
3	413	393	392	
3	373	352	372	
3	374	353	373	
3	375	354	374	
3	376	355	375	
3	377	356	376	
3	379	359	358	
3	383	363	362	
3	379	358	378	
3	384	364	363	
3	380	359	379	
3	385	365	364	
3	381	360	380	
3	386	366	365	
3	382	361	381	
3	387	367	366	
3	383	362	382	
3	388	368	367	
3	384	363	383	
3	389	369	368	
3	385	364	384	
3	390	370	369	
3	386	365	385	
3	391	371	370	
3	387	366	386	
3	392	372	371	
3	388	367	387	
3	393	373	372	
3	389	368	388	
3	394	374	373	
3	390	369	389	
3	395	375	374	
3	391	370	390	
3	396	376	375	
3	392	371	391	
3	397	377	376	
3	393	372	392	
3	394	373	393	
3	395	374	394	
3	436	416	415	
3	396	375	395	
3	397	376	396	
3	398	377	397	
3	400	380	379	
3	404	384	383	
3	400	379	399	
3	423	403	402	
3	401	380	400	
3	405	385	384	
3	402	381	401	
3	406	386	385	
3	403	382	402	
3	407	387	386	
3	404	383	403	
3	408	388	387	
3	405	384	404	
3	409	389	388	
3	406	385	405	
3	410	390	389	
3	407	386	406	
3	411	391	390	
3	408	387	407	
3	412	392	391	
3	409	388	408	
3	414	394	393	
3	410	389	409	
3	415	395	394	
3	411	390	410	
3	416	396	395	
3	412	391	411	
3	417	397	396	
3	413	392	412	
3	418	398	397	
3	414	393	413	
3	415	394	414	
3	416	395	415	
3	417	396	416	
3	418	397	417	
3	419	398	418	
3	422	402	401	
3	424	404	403	
3	421	400	420	
3	425	405	404	
3	422	401	421	
3	426	406	405	
3	423	402	422	
3	427	407	406	
3	424	403	423	
3	428	408	407	
3	425	404	424	
3	429	409	408	
3	426	405	425	
3	430	410	409	
3	427	406	426	
3	431	411	410	
3	428	407	427	
3	432	412	411	
3	429	408	428	
3	433	413	412	
3	430	409	429	
3	434	414	413	
3	431	410	430	
3	435	415	414	
3	432	411	431	
3	437	417	416	
3	433	412	432	
3	438	418	417	
3	434	413	433	
3	439	419	418	
3	435	414	434	
3	436	415	435	
3	437	416	436	
3	438	417	437	
3	439	418	438	
3	440	419	439	

CELL_TYPES	800
5
5
5
5
5
5
5
5
5
5
5
5
5
5
5
5
5
5
5
5
5
5
5
5
5
5
5
5
5
5
5
5
5
5
5
5
5
5
5
5
5
5
5
5
5
5
5
5
5
5
5
5
5
5
5
5
5
5
5
5
5
5
5
5
5
5
5
5
5
5
5
5
5
5
5
5
5
5
5
5
5
5
5
5
5
5
5
5
5
5
5
5
5
5
5
5
5
5
5
5
5
5
5
5
5
5
5
5
5
5
5
5
5
5
5
5
5
5
5
5
5
5
5
5
5
5
5
5
5
5
5
5
5
5
5
5
5
5
5
5
5
5
5
5
5
5
5
5
5
5
5
5
5
5
5
5
5
5
5
5
5
5
5
5
5
5
5
5
5
5
5
5
5
5
5
5
5
5
5
5
5
5
5
5
5
5
5
5
5
5
5
5
5
5
5
5
5
5
5
5
5
5
5
5
5
5
5
5
5
5
5
5
5
5
5
5
5
5
5
5
5
5
5
5
5
5
5
5
5
5
5
5
5
5
5
5
5
5
5
5
5
5
5
5
5
5
5
5
5
5
5
5
5
5
5
5
5
5
5
5
5
5
5
5
5
5
5
5
5
5
5
5
5
5
5
5
5
5
5
5
5
5
5
5
5
5
5
5
5
5
5
5
5
5
5
5
5
5
5
5
5
5
5
5
5
5
5
5
5
5
5
5
5
5
5
5
5
5
5
5
5
5
5
5
5
5
5
5
5
5
5
5
5
5
5
5
5
5
5
5
5
5
5
5
5
5
5
5
5
5
5
5
5
5
5
5
5
5
5
5
5
5
5
5
5
5
5
5
5
5
5
5
5
5
5
5
5
5
5
5
5
5
5
5
5
5
5
5
5
5
5
5
5
5
5
5
5
5
5
5
5
5
5
5
5
5
5
5
5
5
5
5
5
5
5
5
5
5
5
5
5
5
5
5
5
5
5
5
5
5
5
5
5
5
5
5
5
5
5
5
5
5
5
5
5
5
5
5
5
5
5
5
5
5
5
5
5
5
5
5
5
5
5
5
5
5
5
5
5
5
5
5
5
5
5
5
5
5
5
5
5
5
5
5
5
5
5
5
5
5
5
5
5
5
5
5
5
5
5
5
5
5
5
5
5
5
5
5
5
5
5
5
5
5
5
5
5
5
5
5
5
5
5
5
5
5
5
5
5
5
5
5
5
5
5
5
5
5
5
5
5
5
5
5
5
5
5
5
5
5
5
5
5
5
5
5
5
5
5
5
5
5
5
5
5
5
5
5
5
5
5
5
5
5
5
5
5
5
5
5
5
5
5
5
5
5
5
5
5
5
5
5
5
5
5
5
5
5
5
5
5
5
5
5
5
5
5
5
5
5
5
5
5
5
5
5
5
5
5
5
5
5
5
5
5
5
5
5
5
5
5
5
5
5
5
5
5
5
5
5
5
5
5
5
5
5
5
5
5
5
5
5
5
5
5
5
5
5
5
5
5
5
5
5
5
5
5
5
5
5
5
5
5
5
5
5
5
5
5
5
5
5
5
5
5
5
5
5
5
5
5
5
5
5
5
5
5
5
5
5
5
5
5
5
5
5
5
5
5
5
5
5
5
5
5
5
5
5
5
5
5
5
5
5
5
5
5
5
5
5
5
5
5
5
5
5
5
5
5
5
5
5
5
5
5
5
5
5
5
5
5
5
5
5
5
5
5
5
5
5
5
5
5
5
5
5
5
5
5
5
5
5
5
5
5
5
5
5
5
5
5
5
5
5
5
5
5
5
5
5
5
5
5
5
5
5
5
5
5
5

POINT_DATA	441
SCALARS T float
LOOKUP_TABLE default
-9.32418e-009
1.72819e-008
-3.49071e-008
7.4346e-008
-1.49939e-007
2.52175e-007
-2.70943e-007
-6.26474e-008
8.45253e-007
-1.13397e-006
-3.6777e-007
1.64499e-006
1.07985e-006
-1.13381e-006
-8.63514e-007
1.75248e-006
9.82945e-007
-7.0354e-006
-1.84102e-005
-2.39582e-005
-3.28575e-005
4.07478e-009
-8.37488e-009
1.95454e-008
-4.91479e-008
1.19889e-007
-2.51797e-007
3.67666e-007
-7.40776e-008
-1.24113e-006
2.80465e-006
-1.09385e-006
-4.00604e-006
1.14911e-006
3.99774e-006
-3.80328e-006
-5.23649e-006
2.3366e-005
7.40268e-005
0.000108018
0.00010538
0.000161393
-3.24089e-009
8.72692e-009
-2.72033e-008
8.46328e-008
-2.41259e-007
5.75759e-007
-9.5896e-007
3.36228e-007
3.67779e-006
-1.08553e-005
1.04239e-005
8.65976e-006
-1.70595e-005
-9.94866e-007
3.56443e-005
-3.80387e-005
-0.000253656
-0.00043938
-0.00041978
-0.000256905
-0.000156307
2.87661e-009
-9.48691e-009
3.62782e-008
-1.35176e-007
4.59746e-007
-1.31687e-006
2.75065e-006
-2.3726e-006
-8.16796e-006
3.63791e-005
-5.80264e-005
1.16079e-005
7.4067e-005
-0.00010188
-8.30741e-005
0.000624672
0.00152128
0.00162584
0.000827146
-0.000261638
-0.00142775
-7.4615e-010
5.30295e-009
-3.06458e-008
1.54379e-007
-6.79141e-007
2.48449e-006
-6.81325e-006
1.05189e-005
8.43067e-006
-9.31992e-005
0.000229337
-0.000225669
-8.04215e-005
0.000662464
-0.000740335
-0.0042614
-0.00573172
-0.0030623
0.00174555
0.00347592
0.00519698
-3.52709e-009
6.83702e-009
-8.77541e-009
-5.41167e-008
5.88235e-007
-3.36747e-006
1.31846e-005
-3.2411e-005
2.36353e-005
0.000151372
-0.000638954
0.0011828
-0.00100395
-0.00152137
0.00852728
0.0174896
0.0121544
-0.0067975
-0.014293
-0.00454919
0.0128374
5.99852e-009
-1.85488e-008
8.11056e-008
-2.61973e-007
4.36566e-007
1.42008e-006
-1.53851e-005
6.50417e-005
-0.000135736
-2.64902e-005
0.00106509
-0.00350832
0.00692617
0.0650376
0.133118
0.162165
0.134405
0.0728251
0.0117073
-0.0167667
0.000444226
-1.78066e-008
5.65198e-008
-1.85725e-007
7.3173e-007
-2.7017e-006
7.29869e-006
-6.70571e-006
-4.89949e-005
0.000260305
-0.000501066
-0.000306631
0.00485579
0.0930783
0.249255
0.389506
0.444428
0.385926
0.244993
0.100303
0.00452254
-0.0148252
-9.41678e-008
1.91207e-007
-3.49611e-007
2.95068e-007
2.19405e-006
-1.67226e-005
6.57912e-005
-0.000147452
8.44851e-005
0.00052956
-0.0016285
0.0432747
0.22359
0.467342
0.669137
0.746254
0.667196
0.460804
0.219781
0.0527155
-0.0119337
-2.2722e-007
3.7243e-007
-5.69675e-007
7.54108e-007
-1.7985e-006
1.49241e-005
-0.000101318
0.000442169
-0.00125154
0.00218235
-0.00246883
0.0869732
0.324314
0.621774
0.864401
0.954468
0.860335
0.61807
0.316789
0.0897388
0.000416011
-4.68074e-007
7.40698e-007
-1.63785e-006
5.34559e-006
-2.1143e-005
7.9555e-005
-0.000240268
0.000511252
-0.00066669
0.000774115
-0.00111329
0.0925097
0.344875
0.647965
0.894313
0.989734
0.891834
0.643893
0.335197
0.0905065
0.00733289
-8.76533e-007
1.34556e-006
-3.34574e-006
1.06747e-005
-3.27339e-005
8.00086e-005
-0.000126103
6.65035e-005
3.31755e-005
-9.4108e-005
0.000583346
0.0600501
0.26303
0.539531
0.752157
0.836101
0.749893
0.528798
0.261532
0.0566967
0.000446533
-1.44256e-006
1.93896e-006
-4.36187e-006
1.10584e-005
-2.2447e-005
2.47555e-005
1.26687e-005
-4.0691e-005
1.821e-005
-0.000176251
-0.000574575
0.0224293
0.131498
0.326628
0.496013
0.557399
0.490789
0.325616
0.13355
0.0167692
-0.00437952
-1.93086e-006
2.07326e-006
-3.64514e-006
6.06175e-006
-4.42819e-006
-8.49601e-006
1.0924e-005
7.61683e-006
4.4034e-005
6.19602e-005
-0.000650713
-0.000108942
0.036448
0.115688
0.211472
0.251216
0.212093
0.115475
0.0270793
-0.000850986
0.000270655
-2.04129e-006
1.59622e-006
-1.7915e-006
8.603e-007
2.91074e-006
-2.08667e-006
-4.9901e-006
-1.43182e-005
-1.26791e-005
0.000115897
0.000116754
-0.000738919
0.0015539
0.0140695
0.0376685
0.0514459
0.0366281
0.0131349
0.00115717
-0.000391184
0.000138427
-1.67067e-006
8.22882e-007
-2.68187e-007
-8.20233e-007
3.54798e-007
1.83786e-006
4.89832e-006
3.26651e-006
-2.94581e-005
-4.52207e-005
5.56196e-005
0.00011802
-0.000824872
0.000891687
-0.000265253
-0.00278719
-0.00155105
-0.000307101
7.49895e-005
-2.38987e-005
3.21745e-007
-1.02229e-006
2.20451e-007
1.9693e-007
-7.01002e-008
-5.68789e-007
-1.56111e-006
-8.76722e-007
8.52272e-006
1.68404e-005
-7.93146e-007
-2.24993e-005
3.91013e-005
0.000261298
-0.000358154
-0.00024814
0.000226587
6.97829e-005
9.13208e-006
-7.84033e-006
2.7037e-006
-9.01933e-007
-4.39157e-007
-8.59305e-009
1.81394e-008
1.6356e-007
4.55086e-007
1.97913e-007
-2.60255e-006
-5.97275e-006
-3.31356e-006
2.52119e-006
-5.76237e-006
-3.90242e-005
-6.55376e-005
0.000118848
6.94861e-005
-5.82452e-005
5.03819e-006
-3.41154e-006
1.86873e-006
-7.65066e-007
3.43523e-007
-1.2891e-007
3.3791e-009
-4.57868e-008
-1.21818e-007
-2.50933e-008
8.13458e-007
2.02527e-006
1.936e-006
7.48988e-007
2.54567e-006
1.00442e-005
1.82465e-005
1.06571e-005
-4.03411e-005
-1.91106e-005
1.98081e-005
-5.7306e-006
2.2623e-006
-9.56224e-007
3.93218e-007
-1.77557e-007
-5.26782e-008
1.71263e-008
3.03598e-008
-4.77641e-009
-2.55809e-007
-6.64364e-007
-8.31007e-007
-7.46788e-007
-1.44829e-006
-3.87072e-006
-6.69473e-006
-6.30534e-006
1.61283e-006
1.58884e-005
6.69818e-006
-8.24135e-006
3.14589e-006
-1.36709e-006
6.62281e-007
-3.36795e-007
1.78319e-007
-3.70821e-008
-7.50191e-009
5.63826e-011
8.03694e-008
2.32116e-007
3.43544e-007
3.91224e-007
7.35787e-007
1.91426e-006
3.72557e-006
4.54429e-006
1.97073e-006
-5.54919e-006
-1.28109e-005
-3.67462e-006
8.02694e-006
-4.02211e-006
2.07196e-006
-1.16541e-006
6.85929e-007
-4.01785e-007
