# vtk DataFile Version 4.1
vtk output
ASCII
DATASET UNSTRUCTURED_GRID

POINTS	441	float
0	0	0	
0	0.05	0	
0	0.1	0	
0	0.15	0	
0	0.2	0	
0	0.25	0	
0	0.3	0	
0	0.35	0	
0	0.4	0	
0	0.45	0	
0	0.5	0	
0	0.55	0	
0	0.6	0	
0	0.65	0	
0	0.7	0	
0	0.75	0	
0	0.8	0	
0	0.85	0	
0	0.9	0	
0	0.95	0	
0	1	0	
0.05	0	0	
0.05	0.05	0	
0.05	0.1	0	
0.05	0.15	0	
0.05	0.2	0	
0.05	0.25	0	
0.05	0.3	0	
0.05	0.35	0	
0.05	0.4	0	
0.05	0.45	0	
0.05	0.5	0	
0.05	0.55	0	
0.05	0.6	0	
0.05	0.65	0	
0.05	0.7	0	
0.05	0.75	0	
0.05	0.8	0	
0.05	0.85	0	
0.05	0.9	0	
0.05	0.95	0	
0.05	1	0	
0.1	0	0	
0.1	0.05	0	
0.1	0.1	0	
0.1	0.15	0	
0.1	0.2	0	
0.1	0.25	0	
0.1	0.3	0	
0.1	0.35	0	
0.1	0.4	0	
0.1	0.45	0	
0.1	0.5	0	
0.1	0.55	0	
0.1	0.6	0	
0.1	0.65	0	
0.1	0.7	0	
0.1	0.75	0	
0.1	0.8	0	
0.1	0.85	0	
0.1	0.9	0	
0.1	0.95	0	
0.1	1	0	
0.15	0	0	
0.15	0.05	0	
0.15	0.1	0	
0.15	0.15	0	
0.15	0.2	0	
0.15	0.25	0	
0.15	0.3	0	
0.15	0.35	0	
0.15	0.4	0	
0.15	0.45	0	
0.15	0.5	0	
0.15	0.55	0	
0.15	0.6	0	
0.15	0.65	0	
0.15	0.7	0	
0.15	0.75	0	
0.15	0.8	0	
0.15	0.85	0	
0.15	0.9	0	
0.15	0.95	0	
0.15	1	0	
0.2	0	0	
0.2	0.05	0	
0.2	0.1	0	
0.2	0.15	0	
0.2	0.2	0	
0.2	0.25	0	
0.2	0.3	0	
0.2	0.35	0	
0.2	0.4	0	
0.2	0.45	0	
0.2	0.5	0	
0.2	0.55	0	
0.2	0.6	0	
0.2	0.65	0	
0.2	0.7	0	
0.2	0.75	0	
0.2	0.8	0	
0.2	0.85	0	
0.2	0.9	0	
0.2	0.95	0	
0.2	1	0	
0.25	0	0	
0.25	0.05	0	
0.25	0.1	0	
0.25	0.15	0	
0.25	0.2	0	
0.25	0.25	0	
0.25	0.3	0	
0.25	0.35	0	
0.25	0.4	0	
0.25	0.45	0	
0.25	0.5	0	
0.25	0.55	0	
0.25	0.6	0	
0.25	0.65	0	
0.25	0.7	0	
0.25	0.75	0	
0.25	0.8	0	
0.25	0.85	0	
0.25	0.9	0	
0.25	0.95	0	
0.25	1	0	
0.3	0	0	
0.3	0.05	0	
0.3	0.1	0	
0.3	0.15	0	
0.3	0.2	0	
0.3	0.25	0	
0.3	0.3	0	
0.3	0.35	0	
0.3	0.4	0	
0.3	0.45	0	
0.3	0.5	0	
0.3	0.55	0	
0.3	0.6	0	
0.3	0.65	0	
0.3	0.7	0	
0.3	0.75	0	
0.3	0.8	0	
0.3	0.85	0	
0.3	0.9	0	
0.3	0.95	0	
0.3	1	0	
0.35	0	0	
0.35	0.05	0	
0.35	0.1	0	
0.35	0.15	0	
0.35	0.2	0	
0.35	0.25	0	
0.35	0.3	0	
0.35	0.35	0	
0.35	0.4	0	
0.35	0.45	0	
0.35	0.5	0	
0.35	0.55	0	
0.35	0.6	0	
0.35	0.65	0	
0.35	0.7	0	
0.35	0.75	0	
0.35	0.8	0	
0.35	0.85	0	
0.35	0.9	0	
0.35	0.95	0	
0.35	1	0	
0.4	0	0	
0.4	0.05	0	
0.4	0.1	0	
0.4	0.15	0	
0.4	0.2	0	
0.4	0.25	0	
0.4	0.3	0	
0.4	0.35	0	
0.4	0.4	0	
0.4	0.45	0	
0.4	0.5	0	
0.4	0.55	0	
0.4	0.6	0	
0.4	0.65	0	
0.4	0.7	0	
0.4	0.75	0	
0.4	0.8	0	
0.4	0.85	0	
0.4	0.9	0	
0.4	0.95	0	
0.4	1	0	
0.45	0	0	
0.45	0.05	0	
0.45	0.1	0	
0.45	0.15	0	
0.45	0.2	0	
0.45	0.25	0	
0.45	0.3	0	
0.45	0.35	0	
0.45	0.4	0	
0.45	0.45	0	
0.45	0.5	0	
0.45	0.55	0	
0.45	0.6	0	
0.45	0.65	0	
0.45	0.7	0	
0.45	0.75	0	
0.45	0.8	0	
0.45	0.85	0	
0.45	0.9	0	
0.45	0.95	0	
0.45	1	0	
0.5	0	0	
0.5	0.05	0	
0.5	0.1	0	
0.5	0.15	0	
0.5	0.2	0	
0.5	0.25	0	
0.5	0.3	0	
0.5	0.35	0	
0.5	0.4	0	
0.5	0.45	0	
0.5	0.5	0	
0.5	0.55	0	
0.5	0.6	0	
0.5	0.65	0	
0.5	0.7	0	
0.5	0.75	0	
0.5	0.8	0	
0.5	0.85	0	
0.5	0.9	0	
0.5	0.95	0	
0.5	1	0	
0.55	0	0	
0.55	0.05	0	
0.55	0.1	0	
0.55	0.15	0	
0.55	0.2	0	
0.55	0.25	0	
0.55	0.3	0	
0.55	0.35	0	
0.55	0.4	0	
0.55	0.45	0	
0.55	0.5	0	
0.55	0.55	0	
0.55	0.6	0	
0.55	0.65	0	
0.55	0.7	0	
0.55	0.75	0	
0.55	0.8	0	
0.55	0.85	0	
0.55	0.9	0	
0.55	0.95	0	
0.55	1	0	
0.6	0	0	
0.6	0.05	0	
0.6	0.1	0	
0.6	0.15	0	
0.6	0.2	0	
0.6	0.25	0	
0.6	0.3	0	
0.6	0.35	0	
0.6	0.4	0	
0.6	0.45	0	
0.6	0.5	0	
0.6	0.55	0	
0.6	0.6	0	
0.6	0.65	0	
0.6	0.7	0	
0.6	0.75	0	
0.6	0.8	0	
0.6	0.85	0	
0.6	0.9	0	
0.6	0.95	0	
0.6	1	0	
0.65	0	0	
0.65	0.05	0	
0.65	0.1	0	
0.65	0.15	0	
0.65	0.2	0	
0.65	0.25	0	
0.65	0.3	0	
0.65	0.35	0	
0.65	0.4	0	
0.65	0.45	0	
0.65	0.5	0	
0.65	0.55	0	
0.65	0.6	0	
0.65	0.65	0	
0.65	0.7	0	
0.65	0.75	0	
0.65	0.8	0	
0.65	0.85	0	
0.65	0.9	0	
0.65	0.95	0	
0.65	1	0	
0.7	0	0	
0.7	0.05	0	
0.7	0.1	0	
0.7	0.15	0	
0.7	0.2	0	
0.7	0.25	0	
0.7	0.3	0	
0.7	0.35	0	
0.7	0.4	0	
0.7	0.45	0	
0.7	0.5	0	
0.7	0.55	0	
0.7	0.6	0	
0.7	0.65	0	
0.7	0.7	0	
0.7	0.75	0	
0.7	0.8	0	
0.7	0.85	0	
0.7	0.9	0	
0.7	0.95	0	
0.7	1	0	
0.75	0	0	
0.75	0.05	0	
0.75	0.1	0	
0.75	0.15	0	
0.75	0.2	0	
0.75	0.25	0	
0.75	0.3	0	
0.75	0.35	0	
0.75	0.4	0	
0.75	0.45	0	
0.75	0.5	0	
0.75	0.55	0	
0.75	0.6	0	
0.75	0.65	0	
0.75	0.7	0	
0.75	0.75	0	
0.75	0.8	0	
0.75	0.85	0	
0.75	0.9	0	
0.75	0.95	0	
0.75	1	0	
0.8	0	0	
0.8	0.05	0	
0.8	0.1	0	
0.8	0.15	0	
0.8	0.2	0	
0.8	0.25	0	
0.8	0.3	0	
0.8	0.35	0	
0.8	0.4	0	
0.8	0.45	0	
0.8	0.5	0	
0.8	0.55	0	
0.8	0.6	0	
0.8	0.65	0	
0.8	0.7	0	
0.8	0.75	0	
0.8	0.8	0	
0.8	0.85	0	
0.8	0.9	0	
0.8	0.95	0	
0.8	1	0	
0.85	0	0	
0.85	0.05	0	
0.85	0.1	0	
0.85	0.15	0	
0.85	0.2	0	
0.85	0.25	0	
0.85	0.3	0	
0.85	0.35	0	
0.85	0.4	0	
0.85	0.45	0	
0.85	0.5	0	
0.85	0.55	0	
0.85	0.6	0	
0.85	0.65	0	
0.85	0.7	0	
0.85	0.75	0	
0.85	0.8	0	
0.85	0.85	0	
0.85	0.9	0	
0.85	0.95	0	
0.85	1	0	
0.9	0	0	
0.9	0.05	0	
0.9	0.1	0	
0.9	0.15	0	
0.9	0.2	0	
0.9	0.25	0	
0.9	0.3	0	
0.9	0.35	0	
0.9	0.4	0	
0.9	0.45	0	
0.9	0.5	0	
0.9	0.55	0	
0.9	0.6	0	
0.9	0.65	0	
0.9	0.7	0	
0.9	0.75	0	
0.9	0.8	0	
0.9	0.85	0	
0.9	0.9	0	
0.9	0.95	0	
0.9	1	0	
0.95	0	0	
0.95	0.05	0	
0.95	0.1	0	
0.95	0.15	0	
0.95	0.2	0	
0.95	0.25	0	
0.95	0.3	0	
0.95	0.35	0	
0.95	0.4	0	
0.95	0.45	0	
0.95	0.5	0	
0.95	0.55	0	
0.95	0.6	0	
0.95	0.65	0	
0.95	0.7	0	
0.95	0.75	0	
0.95	0.8	0	
0.95	0.85	0	
0.95	0.9	0	
0.95	0.95	0	
0.95	1	0	
1	0	0	
1	0.05	0	
1	0.1	0	
1	0.15	0	
1	0.2	0	
1	0.25	0	
1	0.3	0	
1	0.35	0	
1	0.4	0	
1	0.45	0	
1	0.5	0	
1	0.55	0	
1	0.6	0	
1	0.65	0	
1	0.7	0	
1	0.75	0	
1	0.8	0	
1	0.85	0	
1	0.9	0	
1	0.95	0	
1	1	0	

CELLS 400	2000
4	0	21	22	1	
4	1	22	23	2	
4	2	23	24	3	
4	3	24	25	4	
4	4	25	26	5	
4	5	26	27	6	
4	6	27	28	7	
4	7	28	29	8	
4	8	29	30	9	
4	9	30	31	10	
4	10	31	32	11	
4	11	32	33	12	
4	12	33	34	13	
4	13	34	35	14	
4	14	35	36	15	
4	15	36	37	16	
4	16	37	38	17	
4	17	38	39	18	
4	18	39	40	19	
4	19	40	41	20	
4	21	42	43	22	
4	22	43	44	23	
4	23	44	45	24	
4	24	45	46	25	
4	25	46	47	26	
4	26	47	48	27	
4	27	48	49	28	
4	28	49	50	29	
4	29	50	51	30	
4	30	51	52	31	
4	31	52	53	32	
4	32	53	54	33	
4	33	54	55	34	
4	34	55	56	35	
4	35	56	57	36	
4	36	57	58	37	
4	37	58	59	38	
4	38	59	60	39	
4	39	60	61	40	
4	40	61	62	41	
4	42	63	64	43	
4	43	64	65	44	
4	44	65	66	45	
4	45	66	67	46	
4	46	67	68	47	
4	47	68	69	48	
4	48	69	70	49	
4	49	70	71	50	
4	50	71	72	51	
4	51	72	73	52	
4	52	73	74	53	
4	53	74	75	54	
4	54	75	76	55	
4	55	76	77	56	
4	56	77	78	57	
4	57	78	79	58	
4	58	79	80	59	
4	59	80	81	60	
4	60	81	82	61	
4	61	82	83	62	
4	63	84	85	64	
4	64	85	86	65	
4	65	86	87	66	
4	66	87	88	67	
4	67	88	89	68	
4	68	89	90	69	
4	69	90	91	70	
4	70	91	92	71	
4	71	92	93	72	
4	72	93	94	73	
4	73	94	95	74	
4	74	95	96	75	
4	75	96	97	76	
4	76	97	98	77	
4	77	98	99	78	
4	78	99	100	79	
4	79	100	101	80	
4	80	101	102	81	
4	81	102	103	82	
4	82	103	104	83	
4	84	105	106	85	
4	85	106	107	86	
4	86	107	108	87	
4	87	108	109	88	
4	88	109	110	89	
4	89	110	111	90	
4	90	111	112	91	
4	91	112	113	92	
4	92	113	114	93	
4	93	114	115	94	
4	94	115	116	95	
4	95	116	117	96	
4	96	117	118	97	
4	97	118	119	98	
4	98	119	120	99	
4	99	120	121	100	
4	100	121	122	101	
4	101	122	123	102	
4	102	123	124	103	
4	103	124	125	104	
4	105	126	127	106	
4	106	127	128	107	
4	107	128	129	108	
4	108	129	130	109	
4	109	130	131	110	
4	110	131	132	111	
4	111	132	133	112	
4	112	133	134	113	
4	113	134	135	114	
4	114	135	136	115	
4	115	136	137	116	
4	116	137	138	117	
4	117	138	139	118	
4	118	139	140	119	
4	119	140	141	120	
4	120	141	142	121	
4	121	142	143	122	
4	122	143	144	123	
4	123	144	145	124	
4	124	145	146	125	
4	126	147	148	127	
4	127	148	149	128	
4	128	149	150	129	
4	129	150	151	130	
4	130	151	152	131	
4	131	152	153	132	
4	132	153	154	133	
4	133	154	155	134	
4	134	155	156	135	
4	135	156	157	136	
4	136	157	158	137	
4	137	158	159	138	
4	138	159	160	139	
4	139	160	161	140	
4	140	161	162	141	
4	141	162	163	142	
4	142	163	164	143	
4	143	164	165	144	
4	144	165	166	145	
4	145	166	167	146	
4	147	168	169	148	
4	148	169	170	149	
4	149	170	171	150	
4	150	171	172	151	
4	151	172	173	152	
4	152	173	174	153	
4	153	174	175	154	
4	154	175	176	155	
4	155	176	177	156	
4	156	177	178	157	
4	157	178	179	158	
4	158	179	180	159	
4	159	180	181	160	
4	160	181	182	161	
4	161	182	183	162	
4	162	183	184	163	
4	163	184	185	164	
4	164	185	186	165	
4	165	186	187	166	
4	166	187	188	167	
4	168	189	190	169	
4	169	190	191	170	
4	170	191	192	171	
4	171	192	193	172	
4	172	193	194	173	
4	173	194	195	174	
4	174	195	196	175	
4	175	196	197	176	
4	176	197	198	177	
4	177	198	199	178	
4	178	199	200	179	
4	179	200	201	180	
4	180	201	202	181	
4	181	202	203	182	
4	182	203	204	183	
4	183	204	205	184	
4	184	205	206	185	
4	185	206	207	186	
4	186	207	208	187	
4	187	208	209	188	
4	189	210	211	190	
4	190	211	212	191	
4	191	212	213	192	
4	192	213	214	193	
4	193	214	215	194	
4	194	215	216	195	
4	195	216	217	196	
4	196	217	218	197	
4	197	218	219	198	
4	198	219	220	199	
4	199	220	221	200	
4	200	221	222	201	
4	201	222	223	202	
4	202	223	224	203	
4	203	224	225	204	
4	204	225	226	205	
4	205	226	227	206	
4	206	227	228	207	
4	207	228	229	208	
4	208	229	230	209	
4	210	231	232	211	
4	211	232	233	212	
4	212	233	234	213	
4	213	234	235	214	
4	214	235	236	215	
4	215	236	237	216	
4	216	237	238	217	
4	217	238	239	218	
4	218	239	240	219	
4	219	240	241	220	
4	220	241	242	221	
4	221	242	243	222	
4	222	243	244	223	
4	223	244	245	224	
4	224	245	246	225	
4	225	246	247	226	
4	226	247	248	227	
4	227	248	249	228	
4	228	249	250	229	
4	229	250	251	230	
4	231	252	253	232	
4	232	253	254	233	
4	233	254	255	234	
4	234	255	256	235	
4	235	256	257	236	
4	236	257	258	237	
4	237	258	259	238	
4	238	259	260	239	
4	239	260	261	240	
4	240	261	262	241	
4	241	262	263	242	
4	242	263	264	243	
4	243	264	265	244	
4	244	265	266	245	
4	245	266	267	246	
4	246	267	268	247	
4	247	268	269	248	
4	248	269	270	249	
4	249	270	271	250	
4	250	271	272	251	
4	252	273	274	253	
4	253	274	275	254	
4	254	275	276	255	
4	255	276	277	256	
4	256	277	278	257	
4	257	278	279	258	
4	258	279	280	259	
4	259	280	281	260	
4	260	281	282	261	
4	261	282	283	262	
4	262	283	284	263	
4	263	284	285	264	
4	264	285	286	265	
4	265	286	287	266	
4	266	287	288	267	
4	267	288	289	268	
4	268	289	290	269	
4	269	290	291	270	
4	270	291	292	271	
4	271	292	293	272	
4	273	294	295	274	
4	274	295	296	275	
4	275	296	297	276	
4	276	297	298	277	
4	277	298	299	278	
4	278	299	300	279	
4	279	300	301	280	
4	280	301	302	281	
4	281	302	303	282	
4	282	303	304	283	
4	283	304	305	284	
4	284	305	306	285	
4	285	306	307	286	
4	286	307	308	287	
4	287	308	309	288	
4	288	309	310	289	
4	289	310	311	290	
4	290	311	312	291	
4	291	312	313	292	
4	292	313	314	293	
4	294	315	316	295	
4	295	316	317	296	
4	296	317	318	297	
4	297	318	319	298	
4	298	319	320	299	
4	299	320	321	300	
4	300	321	322	301	
4	301	322	323	302	
4	302	323	324	303	
4	303	324	325	304	
4	304	325	326	305	
4	305	326	327	306	
4	306	327	328	307	
4	307	328	329	308	
4	308	329	330	309	
4	309	330	331	310	
4	310	331	332	311	
4	311	332	333	312	
4	312	333	334	313	
4	313	334	335	314	
4	315	336	337	316	
4	316	337	338	317	
4	317	338	339	318	
4	318	339	340	319	
4	319	340	341	320	
4	320	341	342	321	
4	321	342	343	322	
4	322	343	344	323	
4	323	344	345	324	
4	324	345	346	325	
4	325	346	347	326	
4	326	347	348	327	
4	327	348	349	328	
4	328	349	350	329	
4	329	350	351	330	
4	330	351	352	331	
4	331	352	353	332	
4	332	353	354	333	
4	333	354	355	334	
4	334	355	356	335	
4	336	357	358	337	
4	337	358	359	338	
4	338	359	360	339	
4	339	360	361	340	
4	340	361	362	341	
4	341	362	363	342	
4	342	363	364	343	
4	343	364	365	344	
4	344	365	366	345	
4	345	366	367	346	
4	346	367	368	347	
4	347	368	369	348	
4	348	369	370	349	
4	349	370	371	350	
4	350	371	372	351	
4	351	372	373	352	
4	352	373	374	353	
4	353	374	375	354	
4	354	375	376	355	
4	355	376	377	356	
4	357	378	379	358	
4	358	379	380	359	
4	359	380	381	360	
4	360	381	382	361	
4	361	382	383	362	
4	362	383	384	363	
4	363	384	385	364	
4	364	385	386	365	
4	365	386	387	366	
4	366	387	388	367	
4	367	388	389	368	
4	368	389	390	369	
4	369	390	391	370	
4	370	391	392	371	
4	371	392	393	372	
4	372	393	394	373	
4	373	394	395	374	
4	374	395	396	375	
4	375	396	397	376	
4	376	397	398	377	
4	378	399	400	379	
4	379	400	401	380	
4	380	401	402	381	
4	381	402	403	382	
4	382	403	404	383	
4	383	404	405	384	
4	384	405	406	385	
4	385	406	407	386	
4	386	407	408	387	
4	387	408	409	388	
4	388	409	410	389	
4	389	410	411	390	
4	390	411	412	391	
4	391	412	413	392	
4	392	413	414	393	
4	393	414	415	394	
4	394	415	416	395	
4	395	416	417	396	
4	396	417	418	397	
4	397	418	419	398	
4	399	420	421	400	
4	400	421	422	401	
4	401	422	423	402	
4	402	423	424	403	
4	403	424	425	404	
4	404	425	426	405	
4	405	426	427	406	
4	406	427	428	407	
4	407	428	429	408	
4	408	429	430	409	
4	409	430	431	410	
4	410	431	432	411	
4	411	432	433	412	
4	412	433	434	413	
4	413	434	435	414	
4	414	435	436	415	
4	415	436	437	416	
4	416	437	438	417	
4	417	438	439	418	
4	418	439	440	419	

CELL_TYPES	400
9
9
9
9
9
9
9
9
9
9
9
9
9
9
9
9
9
9
9
9
9
9
9
9
9
9
9
9
9
9
9
9
9
9
9
9
9
9
9
9
9
9
9
9
9
9
9
9
9
9
9
9
9
9
9
9
9
9
9
9
9
9
9
9
9
9
9
9
9
9
9
9
9
9
9
9
9
9
9
9
9
9
9
9
9
9
9
9
9
9
9
9
9
9
9
9
9
9
9
9
9
9
9
9
9
9
9
9
9
9
9
9
9
9
9
9
9
9
9
9
9
9
9
9
9
9
9
9
9
9
9
9
9
9
9
9
9
9
9
9
9
9
9
9
9
9
9
9
9
9
9
9
9
9
9
9
9
9
9
9
9
9
9
9
9
9
9
9
9
9
9
9
9
9
9
9
9
9
9
9
9
9
9
9
9
9
9
9
9
9
9
9
9
9
9
9
9
9
9
9
9
9
9
9
9
9
9
9
9
9
9
9
9
9
9
9
9
9
9
9
9
9
9
9
9
9
9
9
9
9
9
9
9
9
9
9
9
9
9
9
9
9
9
9
9
9
9
9
9
9
9
9
9
9
9
9
9
9
9
9
9
9
9
9
9
9
9
9
9
9
9
9
9
9
9
9
9
9
9
9
9
9
9
9
9
9
9
9
9
9
9
9
9
9
9
9
9
9
9
9
9
9
9
9
9
9
9
9
9
9
9
9
9
9
9
9
9
9
9
9
9
9
9
9
9
9
9
9
9
9
9
9
9
9
9
9
9
9
9
9
9
9
9
9
9
9
9
9
9
9
9
9
9
9
9
9
9
9
9
9
9
9
9
9
9
9
9
9
9
9
9
9
9
9
9
9
9
9
9
9
9
9
9
9
9
9
9
9
9
9
9
9
9
9
9
9
9
9
9
9

POINT_DATA	441
SCALARS T float
LOOKUP_TABLE default
1
1
1
1
1
1
1
1
1
1
1
1
1
1
1
1
1
1
1
1
1
1.36861e-010
0.601743
0.720277
0.828559
0.871606
0.911875
0.931608
0.95053
0.960702
0.970709
0.976336
0.98202
0.985284
0.988671
0.99063
0.992722
0.993917
0.995271
0.995936
0.997052
0.996783
5.67859e-011
0.142449
0.447678
0.572442
0.696955
0.76225
0.823879
0.859679
0.893344
0.913929
0.933468
0.945746
0.957563
0.965095
0.97246
0.97718
0.981883
0.984888
0.987905
0.990126
0.990812
6.24493e-012
0.080208
0.183825
0.371599
0.481992
0.598997
0.672432
0.743555
0.790097
0.834076
0.863579
0.89132
0.91021
0.92802
0.940255
0.951866
0.959865
0.967575
0.972702
0.978521
0.979101
6.27529e-012
0.0260182
0.108406
0.191007
0.324306
0.419444
0.524364
0.59865
0.672596
0.725397
0.775964
0.812367
0.846672
0.871526
0.894793
0.911733
0.927562
0.939146
0.949819
0.95864
0.961427
6.67204e-013
0.0177244
0.0449909
0.117595
0.18631
0.289876
0.37225
0.465521
0.537297
0.610508
0.666354
0.72067
0.762025
0.801261
0.831158
0.859131
0.880471
0.900349
0.915222
0.930731
0.933936
1.44462e-012
0.00514446
0.0293803
0.0565397
0.11892
0.177523
0.262446
0.334536
0.41763
0.485518
0.556164
0.612919
0.668921
0.713569
0.756274
0.790221
0.822055
0.847387
0.870547
0.890995
0.897714
-6.43077e-014
0.00486569
0.0108895
0.0367392
0.0628353
0.116653
0.167516
0.239477
0.303246
0.37763
0.441205
0.508396
0.564697
0.62093
0.667542
0.712478
0.749498
0.784453
0.812725
0.841805
0.849419
4.77338e-013
0.000803253
0.00883903
0.0158346
0.0411767
0.0657477
0.112652
0.157406
0.21968
0.276626
0.343538
0.40282
0.466176
0.521177
0.576638
0.624176
0.670318
0.709612
0.746402
0.780636
0.792344
-1.33246e-013
0.001634
0.00230377
0.0119536
0.0196494
0.0436263
0.0665363
0.107815
0.147644
0.202302
0.25358
0.314032
0.369233
0.428658
0.481841
0.535851
0.583492
0.630112
0.67035
0.712374
0.724772
2.09432e-013
-9.02757e-005
0.00304103
0.003992
0.0143045
0.0224047
0.0447092
0.065998
0.102612
0.138407
0.186868
0.23338
0.288203
0.339601
0.395154
0.446199
0.498293
0.545467
0.591395
0.636212
0.65205
-1.0621e-013
0.000683406
0.000194822
0.00423213
0.00560243
0.0160023
0.0242806
0.0448434
0.0646318
0.0973107
0.129759
0.173058
0.215521
0.265405
0.313288
0.365095
0.413794
0.463711
0.509422
0.558509
0.573987
1.12529e-013
-0.000219166
0.00124486
0.000692793
0.00521365
0.00701579
0.017154
0.025458
0.0443164
0.0627531
0.0920731
0.121717
0.160659
0.199638
0.245179
0.289783
0.338013
0.384221
0.431347
0.479321
0.496639
-7.39332e-014
0.000348047
-0.000241965
0.0017084
0.00128817
0.00599397
0.0081872
0.0178545
0.0260854
0.0433322
0.060569
0.0870116
0.114289
0.149523
0.185482
0.227153
0.268695
0.313456
0.356753
0.40465
0.420252
6.75694e-014
-0.000186703
0.000610022
-0.000123448
0.00208922
0.00190202
0.00658374
0.00910399
0.0181838
0.0262783
0.0420431
0.0582274
0.0822194
0.107485
0.139571
0.172834
0.211073
0.249586
0.290829
0.334191
0.349943
-4.92276e-014
0.000201327
-0.000261256
0.000807961
8.71954e-005
0.00239734
0.00247763
0.00699296
0.00976477
0.0182081
0.0261283
0.0405733
0.0558525
0.0777812
0.101347
0.130708
0.161588
0.196533
0.232061
0.272199
0.285331
4.21584e-014
-0.000132852
0.000342615
-0.000247154
0.0009628
0.000346566
0.00263676
0.0029699
0.00722702
0.0101716
0.017984
0.0257196
0.0390394
0.0535631
0.0738049
0.095883
0.122945
0.151388
0.183342
0.217396
0.229649
-3.2105e-014
0.000123626
-0.000198085
0.000445247
-0.000168961
0.00109067
0.00061365
0.00280204
0.00333798
0.00728677
0.0103332
0.0175708
0.0251449
0.0375598
0.0514983
0.0703419
0.0911962
0.11594
0.142264
0.172021
0.181618
2.61526e-014
-9.02659e-005
0.00021356
-0.000212482
0.000531714
-5.27576e-005
0.00119699
0.000848355
0.00288066
0.00354917
0.00717171
0.0102656
0.0170203
0.0244896
0.0362515
0.0497551
0.0675831
0.0870969
0.110095
0.134181
0.142733
-2.11911e-014
8.36585e-005
-0.000154187
0.000289161
-0.00019191
0.000621899
8.41487e-005
0.00128826
0.0010165
0.00284258
0.00355033
0.00685721
0.0100105
0.0165234
0.0241993
0.0358452
0.0495759
0.0667765
0.0858952
0.106904
0.115193
1.32292e-014
-8.76305e-005
0.000175212
-0.000172785
0.0004351
-4.57954e-005
0.000864575
0.000390551
0.00158041
0.00144963
0.00333773
0.0046024
0.00861983
0.0133386
0.0217444
0.0320638
0.0463987
0.0621358
0.0815721
0.0974205
0.102196
