# vtk DataFile Version 4.1
vtk output
ASCII
DATASET UNSTRUCTURED_GRID

POINTS	441	float
0	0	0	
0	0.05	0	
0	0.1	0	
0	0.15	0	
0	0.2	0	
0	0.25	0	
0	0.3	0	
0	0.35	0	
0	0.4	0	
0	0.45	0	
0	0.5	0	
0	0.55	0	
0	0.6	0	
0	0.65	0	
0	0.7	0	
0	0.75	0	
0	0.8	0	
0	0.85	0	
0	0.9	0	
0	0.95	0	
0	1	0	
0.05	0	0	
0.05	0.05	0	
0.05	0.1	0	
0.05	0.15	0	
0.05	0.2	0	
0.05	0.25	0	
0.05	0.3	0	
0.05	0.35	0	
0.05	0.4	0	
0.05	0.45	0	
0.05	0.5	0	
0.05	0.55	0	
0.05	0.6	0	
0.05	0.65	0	
0.05	0.7	0	
0.05	0.75	0	
0.05	0.8	0	
0.05	0.85	0	
0.05	0.9	0	
0.05	0.95	0	
0.05	1	0	
0.1	0	0	
0.1	0.05	0	
0.1	0.1	0	
0.1	0.15	0	
0.1	0.2	0	
0.1	0.25	0	
0.1	0.3	0	
0.1	0.35	0	
0.1	0.4	0	
0.1	0.45	0	
0.1	0.5	0	
0.1	0.55	0	
0.1	0.6	0	
0.1	0.65	0	
0.1	0.7	0	
0.1	0.75	0	
0.1	0.8	0	
0.1	0.85	0	
0.1	0.9	0	
0.1	0.95	0	
0.1	1	0	
0.15	0	0	
0.15	0.05	0	
0.15	0.1	0	
0.15	0.15	0	
0.15	0.2	0	
0.15	0.25	0	
0.15	0.3	0	
0.15	0.35	0	
0.15	0.4	0	
0.15	0.45	0	
0.15	0.5	0	
0.15	0.55	0	
0.15	0.6	0	
0.15	0.65	0	
0.15	0.7	0	
0.15	0.75	0	
0.15	0.8	0	
0.15	0.85	0	
0.15	0.9	0	
0.15	0.95	0	
0.15	1	0	
0.2	0	0	
0.2	0.05	0	
0.2	0.1	0	
0.2	0.15	0	
0.2	0.2	0	
0.2	0.25	0	
0.2	0.3	0	
0.2	0.35	0	
0.2	0.4	0	
0.2	0.45	0	
0.2	0.5	0	
0.2	0.55	0	
0.2	0.6	0	
0.2	0.65	0	
0.2	0.7	0	
0.2	0.75	0	
0.2	0.8	0	
0.2	0.85	0	
0.2	0.9	0	
0.2	0.95	0	
0.2	1	0	
0.25	0	0	
0.25	0.05	0	
0.25	0.1	0	
0.25	0.15	0	
0.25	0.2	0	
0.25	0.25	0	
0.25	0.3	0	
0.25	0.35	0	
0.25	0.4	0	
0.25	0.45	0	
0.25	0.5	0	
0.25	0.55	0	
0.25	0.6	0	
0.25	0.65	0	
0.25	0.7	0	
0.25	0.75	0	
0.25	0.8	0	
0.25	0.85	0	
0.25	0.9	0	
0.25	0.95	0	
0.25	1	0	
0.3	0	0	
0.3	0.05	0	
0.3	0.1	0	
0.3	0.15	0	
0.3	0.2	0	
0.3	0.25	0	
0.3	0.3	0	
0.3	0.35	0	
0.3	0.4	0	
0.3	0.45	0	
0.3	0.5	0	
0.3	0.55	0	
0.3	0.6	0	
0.3	0.65	0	
0.3	0.7	0	
0.3	0.75	0	
0.3	0.8	0	
0.3	0.85	0	
0.3	0.9	0	
0.3	0.95	0	
0.3	1	0	
0.35	0	0	
0.35	0.05	0	
0.35	0.1	0	
0.35	0.15	0	
0.35	0.2	0	
0.35	0.25	0	
0.35	0.3	0	
0.35	0.35	0	
0.35	0.4	0	
0.35	0.45	0	
0.35	0.5	0	
0.35	0.55	0	
0.35	0.6	0	
0.35	0.65	0	
0.35	0.7	0	
0.35	0.75	0	
0.35	0.8	0	
0.35	0.85	0	
0.35	0.9	0	
0.35	0.95	0	
0.35	1	0	
0.4	0	0	
0.4	0.05	0	
0.4	0.1	0	
0.4	0.15	0	
0.4	0.2	0	
0.4	0.25	0	
0.4	0.3	0	
0.4	0.35	0	
0.4	0.4	0	
0.4	0.45	0	
0.4	0.5	0	
0.4	0.55	0	
0.4	0.6	0	
0.4	0.65	0	
0.4	0.7	0	
0.4	0.75	0	
0.4	0.8	0	
0.4	0.85	0	
0.4	0.9	0	
0.4	0.95	0	
0.4	1	0	
0.45	0	0	
0.45	0.05	0	
0.45	0.1	0	
0.45	0.15	0	
0.45	0.2	0	
0.45	0.25	0	
0.45	0.3	0	
0.45	0.35	0	
0.45	0.4	0	
0.45	0.45	0	
0.45	0.5	0	
0.45	0.55	0	
0.45	0.6	0	
0.45	0.65	0	
0.45	0.7	0	
0.45	0.75	0	
0.45	0.8	0	
0.45	0.85	0	
0.45	0.9	0	
0.45	0.95	0	
0.45	1	0	
0.5	0	0	
0.5	0.05	0	
0.5	0.1	0	
0.5	0.15	0	
0.5	0.2	0	
0.5	0.25	0	
0.5	0.3	0	
0.5	0.35	0	
0.5	0.4	0	
0.5	0.45	0	
0.5	0.5	0	
0.5	0.55	0	
0.5	0.6	0	
0.5	0.65	0	
0.5	0.7	0	
0.5	0.75	0	
0.5	0.8	0	
0.5	0.85	0	
0.5	0.9	0	
0.5	0.95	0	
0.5	1	0	
0.55	0	0	
0.55	0.05	0	
0.55	0.1	0	
0.55	0.15	0	
0.55	0.2	0	
0.55	0.25	0	
0.55	0.3	0	
0.55	0.35	0	
0.55	0.4	0	
0.55	0.45	0	
0.55	0.5	0	
0.55	0.55	0	
0.55	0.6	0	
0.55	0.65	0	
0.55	0.7	0	
0.55	0.75	0	
0.55	0.8	0	
0.55	0.85	0	
0.55	0.9	0	
0.55	0.95	0	
0.55	1	0	
0.6	0	0	
0.6	0.05	0	
0.6	0.1	0	
0.6	0.15	0	
0.6	0.2	0	
0.6	0.25	0	
0.6	0.3	0	
0.6	0.35	0	
0.6	0.4	0	
0.6	0.45	0	
0.6	0.5	0	
0.6	0.55	0	
0.6	0.6	0	
0.6	0.65	0	
0.6	0.7	0	
0.6	0.75	0	
0.6	0.8	0	
0.6	0.85	0	
0.6	0.9	0	
0.6	0.95	0	
0.6	1	0	
0.65	0	0	
0.65	0.05	0	
0.65	0.1	0	
0.65	0.15	0	
0.65	0.2	0	
0.65	0.25	0	
0.65	0.3	0	
0.65	0.35	0	
0.65	0.4	0	
0.65	0.45	0	
0.65	0.5	0	
0.65	0.55	0	
0.65	0.6	0	
0.65	0.65	0	
0.65	0.7	0	
0.65	0.75	0	
0.65	0.8	0	
0.65	0.85	0	
0.65	0.9	0	
0.65	0.95	0	
0.65	1	0	
0.7	0	0	
0.7	0.05	0	
0.7	0.1	0	
0.7	0.15	0	
0.7	0.2	0	
0.7	0.25	0	
0.7	0.3	0	
0.7	0.35	0	
0.7	0.4	0	
0.7	0.45	0	
0.7	0.5	0	
0.7	0.55	0	
0.7	0.6	0	
0.7	0.65	0	
0.7	0.7	0	
0.7	0.75	0	
0.7	0.8	0	
0.7	0.85	0	
0.7	0.9	0	
0.7	0.95	0	
0.7	1	0	
0.75	0	0	
0.75	0.05	0	
0.75	0.1	0	
0.75	0.15	0	
0.75	0.2	0	
0.75	0.25	0	
0.75	0.3	0	
0.75	0.35	0	
0.75	0.4	0	
0.75	0.45	0	
0.75	0.5	0	
0.75	0.55	0	
0.75	0.6	0	
0.75	0.65	0	
0.75	0.7	0	
0.75	0.75	0	
0.75	0.8	0	
0.75	0.85	0	
0.75	0.9	0	
0.75	0.95	0	
0.75	1	0	
0.8	0	0	
0.8	0.05	0	
0.8	0.1	0	
0.8	0.15	0	
0.8	0.2	0	
0.8	0.25	0	
0.8	0.3	0	
0.8	0.35	0	
0.8	0.4	0	
0.8	0.45	0	
0.8	0.5	0	
0.8	0.55	0	
0.8	0.6	0	
0.8	0.65	0	
0.8	0.7	0	
0.8	0.75	0	
0.8	0.8	0	
0.8	0.85	0	
0.8	0.9	0	
0.8	0.95	0	
0.8	1	0	
0.85	0	0	
0.85	0.05	0	
0.85	0.1	0	
0.85	0.15	0	
0.85	0.2	0	
0.85	0.25	0	
0.85	0.3	0	
0.85	0.35	0	
0.85	0.4	0	
0.85	0.45	0	
0.85	0.5	0	
0.85	0.55	0	
0.85	0.6	0	
0.85	0.65	0	
0.85	0.7	0	
0.85	0.75	0	
0.85	0.8	0	
0.85	0.85	0	
0.85	0.9	0	
0.85	0.95	0	
0.85	1	0	
0.9	0	0	
0.9	0.05	0	
0.9	0.1	0	
0.9	0.15	0	
0.9	0.2	0	
0.9	0.25	0	
0.9	0.3	0	
0.9	0.35	0	
0.9	0.4	0	
0.9	0.45	0	
0.9	0.5	0	
0.9	0.55	0	
0.9	0.6	0	
0.9	0.65	0	
0.9	0.7	0	
0.9	0.75	0	
0.9	0.8	0	
0.9	0.85	0	
0.9	0.9	0	
0.9	0.95	0	
0.9	1	0	
0.95	0	0	
0.95	0.05	0	
0.95	0.1	0	
0.95	0.15	0	
0.95	0.2	0	
0.95	0.25	0	
0.95	0.3	0	
0.95	0.35	0	
0.95	0.4	0	
0.95	0.45	0	
0.95	0.5	0	
0.95	0.55	0	
0.95	0.6	0	
0.95	0.65	0	
0.95	0.7	0	
0.95	0.75	0	
0.95	0.8	0	
0.95	0.85	0	
0.95	0.9	0	
0.95	0.95	0	
0.95	1	0	
1	0	0	
1	0.05	0	
1	0.1	0	
1	0.15	0	
1	0.2	0	
1	0.25	0	
1	0.3	0	
1	0.35	0	
1	0.4	0	
1	0.45	0	
1	0.5	0	
1	0.55	0	
1	0.6	0	
1	0.65	0	
1	0.7	0	
1	0.75	0	
1	0.8	0	
1	0.85	0	
1	0.9	0	
1	0.95	0	
1	1	0	

CELLS 800	3200
3	23	3	2	
3	25	5	4	
3	21	1	0	
3	24	4	3	
3	26	6	5	
3	44	24	23	
3	42	22	21	
3	45	25	24	
3	46	26	25	
3	47	27	26	
3	65	45	44	
3	63	43	42	
3	66	46	45	
3	67	47	46	
3	86	66	65	
3	68	48	47	
3	84	64	63	
3	87	67	66	
3	88	68	67	
3	89	69	68	
3	105	85	84	
3	107	87	86	
3	110	90	89	
3	22	2	1	
3	27	7	6	
3	22	1	21	
3	28	8	7	
3	23	2	22	
3	29	9	8	
3	24	3	23	
3	30	10	9	
3	25	4	24	
3	31	11	10	
3	26	5	25	
3	32	12	11	
3	27	6	26	
3	33	13	12	
3	28	7	27	
3	34	14	13	
3	29	8	28	
3	35	15	14	
3	30	9	29	
3	36	16	15	
3	31	10	30	
3	37	17	16	
3	32	11	31	
3	38	18	17	
3	33	12	32	
3	39	19	18	
3	34	13	33	
3	40	20	19	
3	35	14	34	
3	108	88	87	
3	36	15	35	
3	109	89	88	
3	37	16	36	
3	126	106	105	
3	38	17	37	
3	128	108	107	
3	39	18	38	
3	149	129	128	
3	40	19	39	
3	41	20	40	
3	43	23	22	
3	48	28	27	
3	43	22	42	
3	49	29	28	
3	44	23	43	
3	50	30	29	
3	45	24	44	
3	51	31	30	
3	46	25	45	
3	52	32	31	
3	47	26	46	
3	53	33	32	
3	48	27	47	
3	54	34	33	
3	49	28	48	
3	55	35	34	
3	50	29	49	
3	56	36	35	
3	51	30	50	
3	57	37	36	
3	52	31	51	
3	58	38	37	
3	53	32	52	
3	59	39	38	
3	54	33	53	
3	60	40	39	
3	55	34	54	
3	61	41	40	
3	56	35	55	
3	129	109	108	
3	57	36	56	
3	130	110	109	
3	58	37	57	
3	131	111	110	
3	59	38	58	
3	147	127	126	
3	60	39	59	
3	170	150	149	
3	61	40	60	
3	62	41	61	
3	64	44	43	
3	69	49	48	
3	64	43	63	
3	70	50	49	
3	65	44	64	
3	71	51	50	
3	66	45	65	
3	72	52	51	
3	67	46	66	
3	73	53	52	
3	68	47	67	
3	74	54	53	
3	69	48	68	
3	75	55	54	
3	70	49	69	
3	76	56	55	
3	71	50	70	
3	77	57	56	
3	72	51	71	
3	78	58	57	
3	73	52	72	
3	79	59	58	
3	74	53	73	
3	80	60	59	
3	75	54	74	
3	81	61	60	
3	76	55	75	
3	82	62	61	
3	77	56	76	
3	150	130	129	
3	78	57	77	
3	151	131	130	
3	79	58	78	
3	152	132	131	
3	80	59	79	
3	168	148	147	
3	81	60	80	
3	189	169	168	
3	82	61	81	
3	83	62	82	
3	85	65	64	
3	90	70	69	
3	85	64	84	
3	91	71	70	
3	86	65	85	
3	92	72	71	
3	87	66	86	
3	93	73	72	
3	88	67	87	
3	94	74	73	
3	89	68	88	
3	95	75	74	
3	90	69	89	
3	96	76	75	
3	91	70	90	
3	97	77	76	
3	92	71	91	
3	98	78	77	
3	93	72	92	
3	99	79	78	
3	94	73	93	
3	100	80	79	
3	95	74	94	
3	101	81	80	
3	96	75	95	
3	102	82	81	
3	97	76	96	
3	103	83	82	
3	98	77	97	
3	171	151	150	
3	99	78	98	
3	172	152	151	
3	100	79	99	
3	173	153	152	
3	101	80	100	
3	192	172	171	
3	102	81	101	
3	214	194	193	
3	103	82	102	
3	104	83	103	
3	106	86	85	
3	111	91	90	
3	106	85	105	
3	112	92	91	
3	107	86	106	
3	113	93	92	
3	108	87	107	
3	114	94	93	
3	109	88	108	
3	115	95	94	
3	110	89	109	
3	116	96	95	
3	111	90	110	
3	117	97	96	
3	112	91	111	
3	118	98	97	
3	113	92	112	
3	119	99	98	
3	114	93	113	
3	120	100	99	
3	115	94	114	
3	121	101	100	
3	116	95	115	
3	122	102	101	
3	117	96	116	
3	123	103	102	
3	118	97	117	
3	191	171	170	
3	119	98	118	
3	124	104	103	
3	120	99	119	
3	193	173	172	
3	121	100	120	
3	210	190	189	
3	122	101	121	
3	213	193	192	
3	123	102	122	
3	252	232	231	
3	124	103	123	
3	125	104	124	
3	127	107	106	
3	132	112	111	
3	127	106	126	
3	133	113	112	
3	128	107	127	
3	134	114	113	
3	129	108	128	
3	135	115	114	
3	130	109	129	
3	136	116	115	
3	131	110	130	
3	137	117	116	
3	132	111	131	
3	138	118	117	
3	133	112	132	
3	139	119	118	
3	134	113	133	
3	140	120	119	
3	135	114	134	
3	141	121	120	
3	136	115	135	
3	142	122	121	
3	137	116	136	
3	143	123	122	
3	138	117	137	
3	212	192	191	
3	139	118	138	
3	144	124	123	
3	140	119	139	
3	145	125	124	
3	141	120	140	
3	231	211	210	
3	142	121	141	
3	234	214	213	
3	143	122	142	
3	235	215	214	
3	144	123	143	
3	273	253	252	
3	145	124	144	
3	146	125	145	
3	148	128	127	
3	153	133	132	
3	148	127	147	
3	154	134	133	
3	149	128	148	
3	155	135	134	
3	150	129	149	
3	156	136	135	
3	151	130	150	
3	157	137	136	
3	152	131	151	
3	158	138	137	
3	153	132	152	
3	159	139	138	
3	154	133	153	
3	160	140	139	
3	155	134	154	
3	161	141	140	
3	156	135	155	
3	162	142	141	
3	157	136	156	
3	163	143	142	
3	158	137	157	
3	233	213	212	
3	159	138	158	
3	164	144	143	
3	160	139	159	
3	165	145	144	
3	161	140	160	
3	166	146	145	
3	162	141	161	
3	255	235	234	
3	163	142	162	
3	204	184	183	
3	164	143	163	
3	256	236	235	
3	165	144	164	
3	277	257	256	
3	166	145	165	
3	167	146	166	
3	169	149	148	
3	174	154	153	
3	169	148	168	
3	175	155	154	
3	170	149	169	
3	176	156	155	
3	171	150	170	
3	177	157	156	
3	172	151	171	
3	178	158	157	
3	173	152	172	
3	179	159	158	
3	174	153	173	
3	180	160	159	
3	175	154	174	
3	181	161	160	
3	176	155	175	
3	182	162	161	
3	177	156	176	
3	183	163	162	
3	178	157	177	
3	254	234	233	
3	179	158	178	
3	184	164	163	
3	180	159	179	
3	185	165	164	
3	181	160	180	
3	186	166	165	
3	182	161	181	
3	187	167	166	
3	183	162	182	
3	276	256	255	
3	184	163	183	
3	294	274	273	
3	185	164	184	
3	296	276	275	
3	186	165	185	
3	298	278	277	
3	187	166	186	
3	188	167	187	
3	190	170	169	
3	194	174	173	
3	190	169	189	
3	195	175	174	
3	191	170	190	
3	196	176	175	
3	192	171	191	
3	197	177	176	
3	193	172	192	
3	198	178	177	
3	194	173	193	
3	199	179	178	
3	195	174	194	
3	200	180	179	
3	196	175	195	
3	201	181	180	
3	197	176	196	
3	202	182	181	
3	198	177	197	
3	203	183	182	
3	199	178	198	
3	275	255	254	
3	200	179	199	
3	205	185	184	
3	201	180	200	
3	206	186	185	
3	202	181	201	
3	207	187	186	
3	203	182	202	
3	208	188	187	
3	204	183	203	
3	297	277	276	
3	205	184	204	
3	315	295	294	
3	206	185	205	
3	317	297	296	
3	207	186	206	
3	208	187	207	
3	209	188	208	
3	211	191	190	
3	215	195	194	
3	211	190	210	
3	216	196	195	
3	212	191	211	
3	217	197	196	
3	213	192	212	
3	218	198	197	
3	214	193	213	
3	219	199	198	
3	215	194	214	
3	220	200	199	
3	216	195	215	
3	221	201	200	
3	217	196	216	
3	222	202	201	
3	218	197	217	
3	223	203	202	
3	219	198	218	
3	224	204	203	
3	220	199	219	
3	225	205	204	
3	221	200	220	
3	226	206	205	
3	222	201	221	
3	227	207	206	
3	223	202	222	
3	228	208	207	
3	224	203	223	
3	229	209	208	
3	225	204	224	
3	318	298	297	
3	226	205	225	
3	336	316	315	
3	227	206	226	
3	319	299	298	
3	228	207	227	
3	338	318	317	
3	229	208	228	
3	230	209	229	
3	232	212	211	
3	236	216	215	
3	232	211	231	
3	237	217	216	
3	233	212	232	
3	238	218	217	
3	234	213	233	
3	239	219	218	
3	235	214	234	
3	240	220	219	
3	236	215	235	
3	241	221	220	
3	237	216	236	
3	242	222	221	
3	238	217	237	
3	243	223	222	
3	239	218	238	
3	244	224	223	
3	240	219	239	
3	245	225	224	
3	241	220	240	
3	246	226	225	
3	242	221	241	
3	247	227	226	
3	243	222	242	
3	248	228	227	
3	244	223	243	
3	249	229	228	
3	245	224	244	
3	250	230	229	
3	246	225	245	
3	339	319	318	
3	247	226	246	
3	357	337	336	
3	248	227	247	
3	340	320	319	
3	249	228	248	
3	378	358	357	
3	250	229	249	
3	251	230	250	
3	253	233	232	
3	257	237	236	
3	253	232	252	
3	258	238	237	
3	254	233	253	
3	259	239	238	
3	255	234	254	
3	260	240	239	
3	256	235	255	
3	261	241	240	
3	257	236	256	
3	262	242	241	
3	258	237	257	
3	263	243	242	
3	259	238	258	
3	264	244	243	
3	260	239	259	
3	265	245	244	
3	261	240	260	
3	266	246	245	
3	262	241	261	
3	267	247	246	
3	263	242	262	
3	268	248	247	
3	264	243	263	
3	269	249	248	
3	265	244	264	
3	270	250	249	
3	266	245	265	
3	271	251	250	
3	267	246	266	
3	359	339	338	
3	268	247	267	
3	360	340	339	
3	269	248	268	
3	361	341	340	
3	270	249	269	
3	399	379	378	
3	271	250	270	
3	272	251	271	
3	274	254	253	
3	278	258	257	
3	274	253	273	
3	279	259	258	
3	275	254	274	
3	280	260	259	
3	276	255	275	
3	281	261	260	
3	277	256	276	
3	282	262	261	
3	278	257	277	
3	283	263	262	
3	279	258	278	
3	284	264	263	
3	280	259	279	
3	285	265	264	
3	281	260	280	
3	286	266	265	
3	282	261	281	
3	287	267	266	
3	283	262	282	
3	288	268	267	
3	284	263	283	
3	289	269	268	
3	285	264	284	
3	290	270	269	
3	286	265	285	
3	291	271	270	
3	287	266	286	
3	292	272	271	
3	288	267	287	
3	380	360	359	
3	289	268	288	
3	381	361	360	
3	290	269	289	
3	382	362	361	
3	291	270	290	
3	401	381	380	
3	292	271	291	
3	293	272	292	
3	295	275	274	
3	299	279	278	
3	295	274	294	
3	300	280	279	
3	296	275	295	
3	301	281	280	
3	297	276	296	
3	302	282	281	
3	298	277	297	
3	303	283	282	
3	299	278	298	
3	304	284	283	
3	300	279	299	
3	305	285	284	
3	301	280	300	
3	306	286	285	
3	302	281	301	
3	307	287	286	
3	303	282	302	
3	308	288	287	
3	304	283	303	
3	309	289	288	
3	305	284	304	
3	310	290	289	
3	306	285	305	
3	311	291	290	
3	307	286	306	
3	312	292	291	
3	308	287	307	
3	313	293	292	
3	309	288	308	
3	420	400	399	
3	310	289	309	
3	402	382	381	
3	311	290	310	
3	403	383	382	
3	312	291	311	
3	421	401	400	
3	313	292	312	
3	314	293	313	
3	316	296	295	
3	320	300	299	
3	316	295	315	
3	321	301	300	
3	317	296	316	
3	322	302	301	
3	318	297	317	
3	323	303	302	
3	319	298	318	
3	324	304	303	
3	320	299	319	
3	325	305	304	
3	321	300	320	
3	326	306	305	
3	322	301	321	
3	327	307	306	
3	323	302	322	
3	328	308	307	
3	324	303	323	
3	329	309	308	
3	325	304	324	
3	330	310	309	
3	326	305	325	
3	331	311	310	
3	327	306	326	
3	332	312	311	
3	328	307	327	
3	333	313	312	
3	329	308	328	
3	334	314	313	
3	330	309	329	
3	331	310	330	
3	332	311	331	
3	333	312	332	
3	334	313	333	
3	335	314	334	
3	337	317	316	
3	341	321	320	
3	337	316	336	
3	342	322	321	
3	338	317	337	
3	343	323	322	
3	339	318	338	
3	344	324	323	
3	340	319	339	
3	345	325	324	
3	341	320	340	
3	346	326	325	
3	342	321	341	
3	347	327	326	
3	343	322	342	
3	348	328	327	
3	344	323	343	
3	349	329	328	
3	345	324	344	
3	350	330	329	
3	346	325	345	
3	351	331	330	
3	347	326	346	
3	352	332	331	
3	348	327	347	
3	353	333	332	
3	349	328	348	
3	354	334	333	
3	350	329	349	
3	355	335	334	
3	351	330	350	
3	352	331	351	
3	353	332	352	
3	354	333	353	
3	355	334	354	
3	356	335	355	
3	358	338	337	
3	362	342	341	
3	358	337	357	
3	363	343	342	
3	359	338	358	
3	364	344	343	
3	360	339	359	
3	365	345	344	
3	361	340	360	
3	366	346	345	
3	362	341	361	
3	367	347	346	
3	363	342	362	
3	368	348	347	
3	364	343	363	
3	369	349	348	
3	365	344	364	
3	370	350	349	
3	366	345	365	
3	371	351	350	
3	367	346	366	
3	372	352	351	
3	368	347	367	
3	373	353	352	
3	369	348	368	
3	374	354	353	
3	370	349	369	
3	375	355	354	
3	371	350	370	
3	376	356	355	
3	372	351	371	
3	413	393	392	
3	373	352	372	
3	374	353	373	
3	375	354	374	
3	376	355	375	
3	377	356	376	
3	379	359	358	
3	383	363	362	
3	379	358	378	
3	384	364	363	
3	380	359	379	
3	385	365	364	
3	381	360	380	
3	386	366	365	
3	382	361	381	
3	387	367	366	
3	383	362	382	
3	388	368	367	
3	384	363	383	
3	389	369	368	
3	385	364	384	
3	390	370	369	
3	386	365	385	
3	391	371	370	
3	387	366	386	
3	392	372	371	
3	388	367	387	
3	393	373	372	
3	389	368	388	
3	394	374	373	
3	390	369	389	
3	395	375	374	
3	391	370	390	
3	396	376	375	
3	392	371	391	
3	397	377	376	
3	393	372	392	
3	394	373	393	
3	395	374	394	
3	436	416	415	
3	396	375	395	
3	397	376	396	
3	398	377	397	
3	400	380	379	
3	404	384	383	
3	400	379	399	
3	423	403	402	
3	401	380	400	
3	405	385	384	
3	402	381	401	
3	406	386	385	
3	403	382	402	
3	407	387	386	
3	404	383	403	
3	408	388	387	
3	405	384	404	
3	409	389	388	
3	406	385	405	
3	410	390	389	
3	407	386	406	
3	411	391	390	
3	408	387	407	
3	412	392	391	
3	409	388	408	
3	414	394	393	
3	410	389	409	
3	415	395	394	
3	411	390	410	
3	416	396	395	
3	412	391	411	
3	417	397	396	
3	413	392	412	
3	418	398	397	
3	414	393	413	
3	415	394	414	
3	416	395	415	
3	417	396	416	
3	418	397	417	
3	419	398	418	
3	422	402	401	
3	424	404	403	
3	421	400	420	
3	425	405	404	
3	422	401	421	
3	426	406	405	
3	423	402	422	
3	427	407	406	
3	424	403	423	
3	428	408	407	
3	425	404	424	
3	429	409	408	
3	426	405	425	
3	430	410	409	
3	427	406	426	
3	431	411	410	
3	428	407	427	
3	432	412	411	
3	429	408	428	
3	433	413	412	
3	430	409	429	
3	434	414	413	
3	431	410	430	
3	435	415	414	
3	432	411	431	
3	437	417	416	
3	433	412	432	
3	438	418	417	
3	434	413	433	
3	439	419	418	
3	435	414	434	
3	436	415	435	
3	437	416	436	
3	438	417	437	
3	439	418	438	
3	440	419	439	

CELL_TYPES	800
5
5
5
5
5
5
5
5
5
5
5
5
5
5
5
5
5
5
5
5
5
5
5
5
5
5
5
5
5
5
5
5
5
5
5
5
5
5
5
5
5
5
5
5
5
5
5
5
5
5
5
5
5
5
5
5
5
5
5
5
5
5
5
5
5
5
5
5
5
5
5
5
5
5
5
5
5
5
5
5
5
5
5
5
5
5
5
5
5
5
5
5
5
5
5
5
5
5
5
5
5
5
5
5
5
5
5
5
5
5
5
5
5
5
5
5
5
5
5
5
5
5
5
5
5
5
5
5
5
5
5
5
5
5
5
5
5
5
5
5
5
5
5
5
5
5
5
5
5
5
5
5
5
5
5
5
5
5
5
5
5
5
5
5
5
5
5
5
5
5
5
5
5
5
5
5
5
5
5
5
5
5
5
5
5
5
5
5
5
5
5
5
5
5
5
5
5
5
5
5
5
5
5
5
5
5
5
5
5
5
5
5
5
5
5
5
5
5
5
5
5
5
5
5
5
5
5
5
5
5
5
5
5
5
5
5
5
5
5
5
5
5
5
5
5
5
5
5
5
5
5
5
5
5
5
5
5
5
5
5
5
5
5
5
5
5
5
5
5
5
5
5
5
5
5
5
5
5
5
5
5
5
5
5
5
5
5
5
5
5
5
5
5
5
5
5
5
5
5
5
5
5
5
5
5
5
5
5
5
5
5
5
5
5
5
5
5
5
5
5
5
5
5
5
5
5
5
5
5
5
5
5
5
5
5
5
5
5
5
5
5
5
5
5
5
5
5
5
5
5
5
5
5
5
5
5
5
5
5
5
5
5
5
5
5
5
5
5
5
5
5
5
5
5
5
5
5
5
5
5
5
5
5
5
5
5
5
5
5
5
5
5
5
5
5
5
5
5
5
5
5
5
5
5
5
5
5
5
5
5
5
5
5
5
5
5
5
5
5
5
5
5
5
5
5
5
5
5
5
5
5
5
5
5
5
5
5
5
5
5
5
5
5
5
5
5
5
5
5
5
5
5
5
5
5
5
5
5
5
5
5
5
5
5
5
5
5
5
5
5
5
5
5
5
5
5
5
5
5
5
5
5
5
5
5
5
5
5
5
5
5
5
5
5
5
5
5
5
5
5
5
5
5
5
5
5
5
5
5
5
5
5
5
5
5
5
5
5
5
5
5
5
5
5
5
5
5
5
5
5
5
5
5
5
5
5
5
5
5
5
5
5
5
5
5
5
5
5
5
5
5
5
5
5
5
5
5
5
5
5
5
5
5
5
5
5
5
5
5
5
5
5
5
5
5
5
5
5
5
5
5
5
5
5
5
5
5
5
5
5
5
5
5
5
5
5
5
5
5
5
5
5
5
5
5
5
5
5
5
5
5
5
5
5
5
5
5
5
5
5
5
5
5
5
5
5
5
5
5
5
5
5
5
5
5
5
5
5
5
5
5
5
5
5
5
5
5
5
5
5
5
5
5
5
5
5
5
5
5
5
5
5
5
5
5
5
5
5
5
5
5
5
5
5
5
5
5
5
5
5
5
5
5
5
5
5
5
5
5
5
5
5
5
5
5
5
5
5
5
5
5
5
5
5
5
5
5
5
5
5
5
5
5
5
5
5
5
5
5
5
5
5
5
5
5
5
5
5
5
5
5
5
5
5
5
5
5
5
5
5
5
5
5
5
5
5
5
5
5
5
5
5
5
5
5
5
5
5
5
5
5
5
5
5
5
5
5
5
5
5
5
5
5
5
5
5
5
5
5
5
5
5
5
5
5
5
5
5
5
5
5
5
5
5
5
5
5
5
5
5

POINT_DATA	441
SCALARS T float
LOOKUP_TABLE default
1.00001
1.00001
1.00001
1.00001
1.00001
1.00001
1.00001
1.00001
1.00001
1.00001
1.00001
1.00001
1.00001
1.00001
1.00001
1.00001
1.00001
1.00001
1.00001
1.00001
1.00001
6.57113e-006
0.357569
0.625665
0.810019
0.924511
0.986542
1.01331
1.01938
1.01556
1.00881
1.00286
0.999119
0.997567
0.997558
0.998322
0.999244
0.999966
1.00036
1.00047
1.00038
1.00023
-3.1327e-006
0.0751855
0.247504
0.454205
0.649846
0.808135
0.919534
0.986561
1.01855
1.02709
1.02288
1.014
1.00545
0.999539
0.996671
0.996193
0.997094
0.998452
0.999652
1.00042
1.00084
-7.21059e-007
-0.00826642
0.0427193
0.159708
0.324078
0.506656
0.679392
0.822343
0.92607
0.990603
1.02249
1.03134
1.02691
1.01712
1.00729
1.00013
0.99635
0.995403
0.996231
0.997758
0.999221
4.0132e-008
-0.0142167
-0.0193754
0.0112144
0.0917695
0.219969
0.380209
0.550407
0.709035
0.840208
0.93599
0.996121
1.02602
1.03411
1.02925
1.01896
1.00846
1.0006
0.996232
0.994886
0.995139
1.20337e-007
-0.00462112
-0.0175804
-0.0259636
-0.011294
0.041463
0.137725
0.271666
0.428634
0.589881
0.737603
0.858761
0.946915
1.0021
1.02926
1.03605
1.0306
1.01996
1.00913
1.00095
0.995916
4.52218e-008
0.000857717
-0.00452408
-0.0166257
-0.027872
-0.0248754
0.00632629
0.0748549
0.181617
0.31891
0.472695
0.626381
0.764759
0.876966
0.957901
1.00806
1.03219
1.03741
1.03129
1.02052
1.01043
-4.1452e-009
0.00148258
0.00186263
-0.00277671
-0.0135764
-0.0262351
-0.0311569
-0.0162539
0.0289645
0.109731
0.224099
0.363248
0.513686
0.660469
0.790403
0.894394
0.968511
1.01373
1.03474
1.03832
1.0336
-1.24177e-008
0.000532744
0.00211906
0.00275335
-0.0006277
-0.00967982
-0.0223421
-0.0320368
-0.0288847
-0.00248167
0.0548432
0.145475
0.265488
0.405384
0.552225
0.692446
0.814522
0.910853
0.978487
1.01861
1.03785
-5.24123e-009
-0.000109656
0.000637986
0.00227989
0.00334469
0.00132545
-0.00573081
-0.0173217
-0.0292911
-0.0340235
-0.0220961
0.0151558
0.0830424
0.181749
0.305921
0.445674
0.588649
0.722508
0.837165
0.925695
0.984826
4.99494e-010
-0.000201318
-0.000235368
0.000512475
0.00213014
0.00357633
0.00280713
-0.0022209
-0.0120507
-0.0244277
-0.033871
-0.0324371
-0.0115213
0.0358538
0.112987
0.218318
0.345446
0.484319
0.623286
0.750693
0.851082
1.67341e-009
-7.72816e-005
-0.000308918
-0.000362339
0.000276715
0.00178237
0.00347228
0.0037283
0.000584527
-0.00714452
-0.0186384
-0.0303038
-0.0358851
-0.0275521
0.00229839
0.0590483
0.144266
0.25498
0.384199
0.522384
0.647422
7.5928e-010
1.55091e-005
-0.000103
-0.000355486
-0.000467579
9.44021e-006
0.00132814
0.00310294
0.00411201
0.00258806
-0.00298276
-0.0127998
-0.0248441
-0.0345495
-0.0352883
-0.0196299
0.0189362
0.0842726
0.176534
0.293486
0.416325
-6.39512e-011
3.10605e-005
3.35376e-005
-9.50175e-005
-0.000357129
-0.0005356
-0.000238159
0.000842378
0.00255735
0.00404466
0.00381059
0.000249625
-0.00750139
-0.0186604
-0.0302117
-0.0369267
-0.032103
-0.00894389
0.0377478
0.113203
0.209908
-2.56377e-010
1.26216e-005
4.97556e-005
5.30593e-005
-6.68167e-005
-0.000325391
-0.000560218
-0.000435501
0.00038257
0.00192452
0.00364184
0.00434896
0.00251685
-0.00308839
-0.0125917
-0.0243026
-0.0344044
-0.0372776
-0.0268823
0.00534552
0.0647419
-1.2344e-010
-2.31438e-006
1.79796e-005
5.97131e-005
7.1169e-005
-2.87216e-005
-0.000270675
-0.000542947
-0.000568018
-1.16991e-005
0.00128189
0.00302469
0.0043412
0.00388778
0.000288855
-0.00718788
-0.0179021
-0.0293007
-0.0376315
-0.0359857
-0.0107716
8.16713e-012
-5.16683e-006
-5.09166e-006
1.80602e-005
6.28067e-005
8.52692e-005
1.14307e-005
-0.000202767
-0.000490612
-0.000633283
-0.000317756
0.000689324
0.00230436
0.00393962
0.00449656
0.00262366
-0.00276033
-0.0116797
-0.023296
-0.0350835
-0.0321581
4.23512e-011
-2.21405e-006
-8.52208e-006
-8.25769e-006
1.45603e-005
6.03692e-005
9.37043e-005
4.7986e-005
-0.000130435
-0.000412954
-0.000637432
-0.000527656
0.000186904
0.00157244
0.00329131
0.00450878
0.00399651
0.000682458
-0.0062832
-0.0183979
-0.024762
2.1522e-011
3.55156e-007
-3.29609e-006
-1.05143e-005
-1.13885e-005
8.93589e-006
5.36173e-005
9.57096e-005
7.70668e-005
-6.10012e-005
-0.000320251
-0.000590851
-0.000643504
-0.000203155
0.000896174
0.00252088
0.00406486
0.00463215
0.00324748
-0.003416
-0.0101371
-9.83363e-013
8.97175e-007
7.58415e-007
-3.61476e-006
-1.14945e-005
-1.39337e-005
2.9445e-006
4.46147e-005
9.16848e-005
9.50242e-005
-3.98515e-006
-0.000227543
-0.000509153
-0.000669743
-0.000455441
0.000352816
0.00173009
0.00334911
0.00492574
0.00349036
-5.32427e-005
-1.65541e-011
4.5552e-007
1.97209e-006
1.80605e-006
-3.73782e-006
-1.38893e-005
-1.89725e-005
-3.4672e-006
4.0852e-005
9.77908e-005
0.000119394
4.20856e-005
-0.000170911
-0.000476566
-0.000720171
-0.000638823
-1.04521e-005
0.00109399
0.0033869
0.00457149
0.0028787
