# vtk DataFile Version 4.1
vtk output
ASCII
DATASET UNSTRUCTURED_GRID

POINTS	25	float
0	0	0	
1	0	0	
2	0	0	
3	0	0	
4	0	0	
0	1	0	
1	1	0	
2	1	0	
3	1	0	
4	1	0	
0	2	0	
1	2	0	
2	2	0	
3	2	0	
4	2	0	
0	3	0	
1	3	0	
2	3	0	
3	3	0	
4	3	0	
0	4	0	
1	4	0	
2	4	0	
3	4	0	
4	4	0	

CELLS 32	128
3	0	1	6	
3	1	2	7	
3	2	3	8	
3	3	4	9	
3	6	5	0	
3	7	6	1	
3	8	7	2	
3	9	8	3	
3	5	6	11	
3	6	7	12	
3	7	8	13	
3	8	9	14	
3	11	10	5	
3	12	11	6	
3	13	12	7	
3	14	13	8	
3	10	11	16	
3	11	12	17	
3	12	13	18	
3	13	14	19	
3	16	15	10	
3	17	16	11	
3	18	17	12	
3	19	18	13	
3	15	16	21	
3	16	17	22	
3	17	18	23	
3	18	19	24	
3	21	20	15	
3	22	21	16	
3	23	22	17	
3	24	23	18	

CELL_TYPES	32
5
5
5
5
5
5
5
5
5
5
5
5
5
5
5
5
5
5
5
5
5
5
5
5
5
5
5
5
5
5
5
5

POINT_DATA	25
SCALARS T float
LOOKUP_TABLE default
0.000913702
0.000852605
0.000308359
1.31749e-005
-2.2046e-009
0.000852605
-6.75419
-3.69562
-0.165584
9.29139e-006
0.000308359
-3.69562
98.4398
3.64242
-0.000195634
1.31749e-005
-0.165584
3.64242
8.19658
-0.000647118
-2.2046e-009
9.29139e-006
-0.000195634
-0.000647118
-0.000605778
