# vtk DataFile Version 4.1
vtk output
ASCII
DATASET UNSTRUCTURED_GRID

POINTS	49	float
0	0	0	
1	0	0	
2	0	0	
3	0	0	
0	1	0	
1	1	0	
2	1	0	
3	1	0	
0	2	0	
1	2	0	
2	2	0	
3	2	0	
0	3	0	
1	3	0	
2	3	0	
3	3	0	
0.5	0	0	
1.5	0	0	
2.5	0	0	
0	0.5	0	
0.5	0.5	0	
1	0.5	0	
1.5	0.5	0	
2	0.5	0	
2.5	0.5	0	
3	0.5	0	
0.5	1	0	
1.5	1	0	
2.5	1	0	
0	1.5	0	
0.5	1.5	0	
1	1.5	0	
1.5	1.5	0	
2	1.5	0	
2.5	1.5	0	
3	1.5	0	
0.5	2	0	
1.5	2	0	
2.5	2	0	
0	2.5	0	
0.5	2.5	0	
1	2.5	0	
1.5	2.5	0	
2	2.5	0	
2.5	2.5	0	
3	2.5	0	
0.5	3	0	
1.5	3	0	
2.5	3	0	

CELLS 18	72
3	0	1	4	
3	1	5	4	
3	1	2	5	
3	2	6	5	
3	2	3	6	
3	3	7	6	
3	4	5	8	
3	5	9	8	
3	5	6	9	
3	6	10	9	
3	6	7	10	
3	7	11	10	
3	8	9	12	
3	9	13	12	
3	9	10	13	
3	10	14	13	
3	10	11	14	
3	11	15	14	

CELL_TYPES	18
5
5
5
5
5
5
5
5
5
5
5
5
5
5
5
5
5
5

POINT_DATA	49
VECTORS u float
4.26367e-010	2.33945e-013	1	
5.52701e-010	2.53215e-013	0.667038	
5.5254e-010	2.46518e-013	0.332861	
6.17478e-010	2.24538e-013	-1.17756e-014	
0.567925	0.000292033	1	
0.568206	0.000269519	0.666649	
0.568033	0.000199706	0.333511	
0.568326	0.000223056	-6.10209e-014	
0.901597	0.000223107	1	
0.901303	0.00019998	0.66649	
0.901476	0.000270376	0.333355	
0.901196	0.000293605	-9.81035e-014	
1	2.24744e-013	1	
1	2.47109e-013	0.667141	
1	2.54339e-013	0.332965	
1	2.35229e-013	-5.50249e-014	
-3.46776e-010	-1.99522e-013	0	
-3.4606e-010	-1.55634e-013	0	
-3.45716e-010	-6.81636e-014	0	
0.319144	0.000173944	0	
0.318623	0.0001839	0	
0.318437	0.000176658	0	
0.318388	0.000113237	0	
0.318199	6.37234e-005	0	
0.318089	8.24026e-005	0	
0.317459	0.000104896	0	
0.568492	0.000290951	0	
0.568432	0.000213858	0	
0.568409	0.000219326	0	
0.761579	0.000296809	0	
0.761688	0.000297703	0	
0.761561	0.000289337	0	
0.761651	0.00027882	0	
0.76156	0.00028947	0	
0.761685	0.00029825	0	
0.761573	0.000297652	0	
0.901682	0.000219475	0	
0.901705	0.000214254	0	
0.901765	0.000292279	0	
0.984063	0.000105101	0	
0.984695	8.26111e-005	0	
0.984805	6.40021e-005	0	
0.984994	0.000113753	0	
0.985044	0.000177539	0	
0.985231	0.000185032	0	
0.985754	0.00017513	0	
1	-6.84591e-014	0	
1	-1.56465e-013	0	
1	-2.00872e-013	0	
