# vtk DataFile Version 4.1
vtk output
ASCII
DATASET UNSTRUCTURED_GRID

POINTS	49	float
0	0	0	
1	0	0	
2	0	0	
3	0	0	
0	1	0	
1	1	0	
2	1	0	
3	1	0	
0	2	0	
1	2	0	
2	2	0	
3	2	0	
0	3	0	
1	3	0	
2	3	0	
3	3	0	
0.5	0	0	
1.5	0	0	
2.5	0	0	
0	0.5	0	
0.5	0.5	0	
1	0.5	0	
1.5	0.5	0	
2	0.5	0	
2.5	0.5	0	
3	0.5	0	
0.5	1	0	
1.5	1	0	
2.5	1	0	
0	1.5	0	
0.5	1.5	0	
1	1.5	0	
1.5	1.5	0	
2	1.5	0	
2.5	1.5	0	
3	1.5	0	
0.5	2	0	
1.5	2	0	
2.5	2	0	
0	2.5	0	
0.5	2.5	0	
1	2.5	0	
1.5	2.5	0	
2	2.5	0	
2.5	2.5	0	
3	2.5	0	
0.5	3	0	
1.5	3	0	
2.5	3	0	

CELLS 18	72
3	0	1	4	
3	1	5	4	
3	1	2	5	
3	2	6	5	
3	2	3	6	
3	3	7	6	
3	4	5	8	
3	5	9	8	
3	5	6	9	
3	6	10	9	
3	6	7	10	
3	7	11	10	
3	8	9	12	
3	9	13	12	
3	9	10	13	
3	10	14	13	
3	10	11	14	
3	11	15	14	

CELL_TYPES	18
5
5
5
5
5
5
5
5
5
5
5
5
5
5
5
5
5
5

POINT_DATA	49
VECTORS u float
5.55561e-007	-1.81883e-039	7.74308e-018	
5.55576e-007	-4.22027e-035	3.08857e-018	
5.55578e-007	4.22181e-035	-5.33838e-022	
5.55561e-007	2.43712e-039	-4.33259e-018	
0.333339	-1.34251e-034	-1.7205e-018	
0.333338	-2.39816e-034	5.12055e-018	
0.333338	6.51393e-035	7.41234e-018	
0.333339	3.66681e-034	1.73491e-018	
0.666675	2.3315e-035	-9.84568e-018	
0.666674	-1.37017e-034	-1.14806e-018	
0.666674	-1.61095e-034	1.74784e-017	
0.666675	2.11694e-034	9.83069e-018	
1.00001	2.13914e-040	-1.30026e-017	
1.00001	4.1092e-035	-5.35392e-022	
1.00001	-4.10583e-035	6.88524e-018	
1.00001	2.5248e-039	2.61594e-017	
8.33336e-007	-8.12294e-040	0	
8.33356e-007	-1.8024e-040	0	
8.33336e-007	7.9967e-040	0	
0.166668	-7.42099e-035	0	
0.166667	-7.8073e-035	0	
0.16667	-8.52015e-035	0	
0.166671	-3.6109e-035	0	
0.16667	3.04453e-035	0	
0.166667	7.54794e-035	0	
0.166668	1.30991e-034	0	
0.333335	-1.38707e-034	0	
0.333336	-6.81238e-035	0	
0.333335	1.53683e-034	0	
0.500004	-8.57793e-035	0	
0.500004	-1.12741e-034	0	
0.500006	-1.38435e-034	0	
0.500003	-9.21954e-035	0	
0.500006	-1.67649e-035	0	
0.500004	8.58177e-035	0	
0.500004	1.90477e-034	0	
0.666673	-6.19041e-035	0	
0.666672	-1.03615e-034	0	
0.666673	4.21232e-035	0	
0.83334	-1.15699e-035	0	
0.83334	-3.46687e-035	0	
0.833342	-5.32338e-035	0	
0.833342	-5.60864e-035	0	
0.833342	-4.72101e-035	0	
0.83334	1.03388e-035	0	
0.83334	5.94867e-035	0	
1.00001	2.37812e-040	0	
1.00001	-2.79718e-040	0	
1.00001	-3.58633e-040	0	
