# vtk DataFile Version 4.1
vtk output
ASCII
DATASET UNSTRUCTURED_GRID

POINTS	49	float
0	0	0	
1	0	0	
2	0	0	
3	0	0	
0	1	0	
1	1	0	
2	1	0	
3	1	0	
0	2	0	
1	2	0	
2	2	0	
3	2	0	
0	3	0	
1	3	0	
2	3	0	
3	3	0	
0.5	0	0	
1.5	0	0	
2.5	0	0	
0	0.5	0	
0.5	0.5	0	
1	0.5	0	
1.5	0.5	0	
2	0.5	0	
2.5	0.5	0	
3	0.5	0	
0.5	1	0	
1.5	1	0	
2.5	1	0	
0	1.5	0	
0.5	1.5	0	
1	1.5	0	
1.5	1.5	0	
2	1.5	0	
2.5	1.5	0	
3	1.5	0	
0.5	2	0	
1.5	2	0	
2.5	2	0	
0	2.5	0	
0.5	2.5	0	
1	2.5	0	
1.5	2.5	0	
2	2.5	0	
2.5	2.5	0	
3	2.5	0	
0.5	3	0	
1.5	3	0	
2.5	3	0	

CELLS 18	72
3	0	1	4	
3	1	5	4	
3	1	2	5	
3	2	6	5	
3	2	3	6	
3	3	7	6	
3	4	5	8	
3	5	9	8	
3	5	6	9	
3	6	10	9	
3	6	7	10	
3	7	11	10	
3	8	9	12	
3	9	13	12	
3	9	10	13	
3	10	14	13	
3	10	11	14	
3	11	15	14	

CELL_TYPES	18
5
5
5
5
5
5
5
5
5
5
5
5
5
5
5
5
5
5

POINT_DATA	49
VECTORS u float
2.18447e-010	-3.33292e-011	1	
1.4722e-010	-6.68513e-011	-0.250319	
1.08298e-010	-4.42574e-011	-0.146602	
1.19636e-010	-1.7809e-011	-3.99099e-011	
0.834361	-0.0812344	1	
0.762775	-0.111899	0.550983	
0.67213	-0.036382	0.366097	
0.514841	-0.00508656	-1.71093e-010	
1.22021	0.0156766	1	
1.02394	0.0807573	0.712525	
0.898942	0.101457	0.0638718	
0.896505	0.0598028	-2.87058e-010	
1	2.49731e-011	1	
1	7.24206e-011	-0.216847	
1	4.5502e-011	-0.28332	
1	1.90095e-011	-1.66809e-010	
3.27934e-010	-4.92436e-011	0	
1.46777e-010	-1.05464e-010	0	
1.49593e-010	-5.31401e-011	0	
0.536261	-0.0703024	0	
0.499579	-0.0984872	0	
0.411523	-0.128252	0	
0.306519	-0.110765	0	
0.330479	-0.0754816	0	
0.317512	-0.0421928	0	
0.308164	-0.0279851	0	
0.775061	-0.106289	0	
0.674409	-0.0795623	0	
0.571492	-0.000209565	0	
1.00975	-0.0319358	0	
0.966246	-0.0388259	0	
0.920137	-0.0234681	0	
0.876581	0.0154098	0	
0.813247	0.0505214	0	
0.732852	0.0484134	0	
0.705551	0.0367881	0	
1.10758	0.0302309	0	
0.994009	0.117943	0	
0.879624	0.0795018	0	
1.17453	0.0413787	0	
1.15305	0.0776575	0	
1.10799	0.12882	0	
1.01266	0.123101	0	
0.965436	0.0936173	0	
0.94464	0.061929	0	
0.952528	0.043465	0	
1	9.69145e-011	0	
1	8.32497e-011	0	
1	3.09636e-011	0	
