# vtk DataFile Version 4.1
vtk output
ASCII
DATASET UNSTRUCTURED_GRID

POINTS	1281	float
0	0	0	
0	0.05	0	
0	0.1	0	
0	0.15	0	
0	0.2	0	
0	0.25	0	
0	0.3	0	
0	0.35	0	
0	0.4	0	
0	0.45	0	
0	0.5	0	
0	0.55	0	
0	0.6	0	
0	0.65	0	
0	0.7	0	
0	0.75	0	
0	0.8	0	
0	0.85	0	
0	0.9	0	
0	0.95	0	
0	1	0	
0.05	0	0	
0.05	0.05	0	
0.05	0.1	0	
0.05	0.15	0	
0.05	0.2	0	
0.05	0.25	0	
0.05	0.3	0	
0.05	0.35	0	
0.05	0.4	0	
0.05	0.45	0	
0.05	0.5	0	
0.05	0.55	0	
0.05	0.6	0	
0.05	0.65	0	
0.05	0.7	0	
0.05	0.75	0	
0.05	0.8	0	
0.05	0.85	0	
0.05	0.9	0	
0.05	0.95	0	
0.05	1	0	
0.1	0	0	
0.1	0.05	0	
0.1	0.1	0	
0.1	0.15	0	
0.1	0.2	0	
0.1	0.25	0	
0.1	0.3	0	
0.1	0.35	0	
0.1	0.4	0	
0.1	0.45	0	
0.1	0.5	0	
0.1	0.55	0	
0.1	0.6	0	
0.1	0.65	0	
0.1	0.7	0	
0.1	0.75	0	
0.1	0.8	0	
0.1	0.85	0	
0.1	0.9	0	
0.1	0.95	0	
0.1	1	0	
0.15	0	0	
0.15	0.05	0	
0.15	0.1	0	
0.15	0.15	0	
0.15	0.2	0	
0.15	0.25	0	
0.15	0.3	0	
0.15	0.35	0	
0.15	0.4	0	
0.15	0.45	0	
0.15	0.5	0	
0.15	0.55	0	
0.15	0.6	0	
0.15	0.65	0	
0.15	0.7	0	
0.15	0.75	0	
0.15	0.8	0	
0.15	0.85	0	
0.15	0.9	0	
0.15	0.95	0	
0.15	1	0	
0.2	0	0	
0.2	0.05	0	
0.2	0.1	0	
0.2	0.15	0	
0.2	0.2	0	
0.2	0.25	0	
0.2	0.3	0	
0.2	0.35	0	
0.2	0.4	0	
0.2	0.45	0	
0.2	0.5	0	
0.2	0.55	0	
0.2	0.6	0	
0.2	0.65	0	
0.2	0.7	0	
0.2	0.75	0	
0.2	0.8	0	
0.2	0.85	0	
0.2	0.9	0	
0.2	0.95	0	
0.2	1	0	
0.25	0	0	
0.25	0.05	0	
0.25	0.1	0	
0.25	0.15	0	
0.25	0.2	0	
0.25	0.25	0	
0.25	0.3	0	
0.25	0.35	0	
0.25	0.4	0	
0.25	0.45	0	
0.25	0.5	0	
0.25	0.55	0	
0.25	0.6	0	
0.25	0.65	0	
0.25	0.7	0	
0.25	0.75	0	
0.25	0.8	0	
0.25	0.85	0	
0.25	0.9	0	
0.25	0.95	0	
0.25	1	0	
0.3	0	0	
0.3	0.05	0	
0.3	0.1	0	
0.3	0.15	0	
0.3	0.2	0	
0.3	0.25	0	
0.3	0.3	0	
0.3	0.35	0	
0.3	0.4	0	
0.3	0.45	0	
0.3	0.5	0	
0.3	0.55	0	
0.3	0.6	0	
0.3	0.65	0	
0.3	0.7	0	
0.3	0.75	0	
0.3	0.8	0	
0.3	0.85	0	
0.3	0.9	0	
0.3	0.95	0	
0.3	1	0	
0.35	0	0	
0.35	0.05	0	
0.35	0.1	0	
0.35	0.15	0	
0.35	0.2	0	
0.35	0.25	0	
0.35	0.3	0	
0.35	0.35	0	
0.35	0.4	0	
0.35	0.45	0	
0.35	0.5	0	
0.35	0.55	0	
0.35	0.6	0	
0.35	0.65	0	
0.35	0.7	0	
0.35	0.75	0	
0.35	0.8	0	
0.35	0.85	0	
0.35	0.9	0	
0.35	0.95	0	
0.35	1	0	
0.4	0	0	
0.4	0.05	0	
0.4	0.1	0	
0.4	0.15	0	
0.4	0.2	0	
0.4	0.25	0	
0.4	0.3	0	
0.4	0.35	0	
0.4	0.4	0	
0.4	0.45	0	
0.4	0.5	0	
0.4	0.55	0	
0.4	0.6	0	
0.4	0.65	0	
0.4	0.7	0	
0.4	0.75	0	
0.4	0.8	0	
0.4	0.85	0	
0.4	0.9	0	
0.4	0.95	0	
0.4	1	0	
0.45	0	0	
0.45	0.05	0	
0.45	0.1	0	
0.45	0.15	0	
0.45	0.2	0	
0.45	0.25	0	
0.45	0.3	0	
0.45	0.35	0	
0.45	0.4	0	
0.45	0.45	0	
0.45	0.5	0	
0.45	0.55	0	
0.45	0.6	0	
0.45	0.65	0	
0.45	0.7	0	
0.45	0.75	0	
0.45	0.8	0	
0.45	0.85	0	
0.45	0.9	0	
0.45	0.95	0	
0.45	1	0	
0.5	0	0	
0.5	0.05	0	
0.5	0.1	0	
0.5	0.15	0	
0.5	0.2	0	
0.5	0.25	0	
0.5	0.3	0	
0.5	0.35	0	
0.5	0.4	0	
0.5	0.45	0	
0.5	0.5	0	
0.5	0.55	0	
0.5	0.6	0	
0.5	0.65	0	
0.5	0.7	0	
0.5	0.75	0	
0.5	0.8	0	
0.5	0.85	0	
0.5	0.9	0	
0.5	0.95	0	
0.5	1	0	
0.55	0	0	
0.55	0.05	0	
0.55	0.1	0	
0.55	0.15	0	
0.55	0.2	0	
0.55	0.25	0	
0.55	0.3	0	
0.55	0.35	0	
0.55	0.4	0	
0.55	0.45	0	
0.55	0.5	0	
0.55	0.55	0	
0.55	0.6	0	
0.55	0.65	0	
0.55	0.7	0	
0.55	0.75	0	
0.55	0.8	0	
0.55	0.85	0	
0.55	0.9	0	
0.55	0.95	0	
0.55	1	0	
0.6	0	0	
0.6	0.05	0	
0.6	0.1	0	
0.6	0.15	0	
0.6	0.2	0	
0.6	0.25	0	
0.6	0.3	0	
0.6	0.35	0	
0.6	0.4	0	
0.6	0.45	0	
0.6	0.5	0	
0.6	0.55	0	
0.6	0.6	0	
0.6	0.65	0	
0.6	0.7	0	
0.6	0.75	0	
0.6	0.8	0	
0.6	0.85	0	
0.6	0.9	0	
0.6	0.95	0	
0.6	1	0	
0.65	0	0	
0.65	0.05	0	
0.65	0.1	0	
0.65	0.15	0	
0.65	0.2	0	
0.65	0.25	0	
0.65	0.3	0	
0.65	0.35	0	
0.65	0.4	0	
0.65	0.45	0	
0.65	0.5	0	
0.65	0.55	0	
0.65	0.6	0	
0.65	0.65	0	
0.65	0.7	0	
0.65	0.75	0	
0.65	0.8	0	
0.65	0.85	0	
0.65	0.9	0	
0.65	0.95	0	
0.65	1	0	
0.7	0	0	
0.7	0.05	0	
0.7	0.1	0	
0.7	0.15	0	
0.7	0.2	0	
0.7	0.25	0	
0.7	0.3	0	
0.7	0.35	0	
0.7	0.4	0	
0.7	0.45	0	
0.7	0.5	0	
0.7	0.55	0	
0.7	0.6	0	
0.7	0.65	0	
0.7	0.7	0	
0.7	0.75	0	
0.7	0.8	0	
0.7	0.85	0	
0.7	0.9	0	
0.7	0.95	0	
0.7	1	0	
0.75	0	0	
0.75	0.05	0	
0.75	0.1	0	
0.75	0.15	0	
0.75	0.2	0	
0.75	0.25	0	
0.75	0.3	0	
0.75	0.35	0	
0.75	0.4	0	
0.75	0.45	0	
0.75	0.5	0	
0.75	0.55	0	
0.75	0.6	0	
0.75	0.65	0	
0.75	0.7	0	
0.75	0.75	0	
0.75	0.8	0	
0.75	0.85	0	
0.75	0.9	0	
0.75	0.95	0	
0.75	1	0	
0.8	0	0	
0.8	0.05	0	
0.8	0.1	0	
0.8	0.15	0	
0.8	0.2	0	
0.8	0.25	0	
0.8	0.3	0	
0.8	0.35	0	
0.8	0.4	0	
0.8	0.45	0	
0.8	0.5	0	
0.8	0.55	0	
0.8	0.6	0	
0.8	0.65	0	
0.8	0.7	0	
0.8	0.75	0	
0.8	0.8	0	
0.8	0.85	0	
0.8	0.9	0	
0.8	0.95	0	
0.8	1	0	
0.85	0	0	
0.85	0.05	0	
0.85	0.1	0	
0.85	0.15	0	
0.85	0.2	0	
0.85	0.25	0	
0.85	0.3	0	
0.85	0.35	0	
0.85	0.4	0	
0.85	0.45	0	
0.85	0.5	0	
0.85	0.55	0	
0.85	0.6	0	
0.85	0.65	0	
0.85	0.7	0	
0.85	0.75	0	
0.85	0.8	0	
0.85	0.85	0	
0.85	0.9	0	
0.85	0.95	0	
0.85	1	0	
0.9	0	0	
0.9	0.05	0	
0.9	0.1	0	
0.9	0.15	0	
0.9	0.2	0	
0.9	0.25	0	
0.9	0.3	0	
0.9	0.35	0	
0.9	0.4	0	
0.9	0.45	0	
0.9	0.5	0	
0.9	0.55	0	
0.9	0.6	0	
0.9	0.65	0	
0.9	0.7	0	
0.9	0.75	0	
0.9	0.8	0	
0.9	0.85	0	
0.9	0.9	0	
0.9	0.95	0	
0.9	1	0	
0.95	0	0	
0.95	0.05	0	
0.95	0.1	0	
0.95	0.15	0	
0.95	0.2	0	
0.95	0.25	0	
0.95	0.3	0	
0.95	0.35	0	
0.95	0.4	0	
0.95	0.45	0	
0.95	0.5	0	
0.95	0.55	0	
0.95	0.6	0	
0.95	0.65	0	
0.95	0.7	0	
0.95	0.75	0	
0.95	0.8	0	
0.95	0.85	0	
0.95	0.9	0	
0.95	0.95	0	
0.95	1	0	
1	0	0	
1	0.05	0	
1	0.1	0	
1	0.15	0	
1	0.2	0	
1	0.25	0	
1	0.3	0	
1	0.35	0	
1	0.4	0	
1	0.45	0	
1	0.5	0	
1	0.55	0	
1	0.6	0	
1	0.65	0	
1	0.7	0	
1	0.75	0	
1	0.8	0	
1	0.85	0	
1	0.9	0	
1	0.95	0	
1	1	0	
0	0.025	0	
0	0.075	0	
0	0.125	0	
0	0.175	0	
0	0.225	0	
0	0.275	0	
0	0.325	0	
0	0.375	0	
0	0.425	0	
0	0.475	0	
0	0.525	0	
0	0.575	0	
0	0.625	0	
0	0.675	0	
0	0.725	0	
0	0.775	0	
0	0.825	0	
0	0.875	0	
0	0.925	0	
0	0.975	0	
0.05	0.025	0	
0.05	0.075	0	
0.05	0.125	0	
0.05	0.175	0	
0.05	0.225	0	
0.05	0.275	0	
0.05	0.325	0	
0.05	0.375	0	
0.05	0.425	0	
0.05	0.475	0	
0.05	0.525	0	
0.05	0.575	0	
0.05	0.625	0	
0.05	0.675	0	
0.05	0.725	0	
0.05	0.775	0	
0.05	0.825	0	
0.05	0.875	0	
0.05	0.925	0	
0.05	0.975	0	
0.1	0.025	0	
0.1	0.075	0	
0.1	0.125	0	
0.1	0.175	0	
0.1	0.225	0	
0.1	0.275	0	
0.1	0.325	0	
0.1	0.375	0	
0.1	0.425	0	
0.1	0.475	0	
0.1	0.525	0	
0.1	0.575	0	
0.1	0.625	0	
0.1	0.675	0	
0.1	0.725	0	
0.1	0.775	0	
0.1	0.825	0	
0.1	0.875	0	
0.1	0.925	0	
0.1	0.975	0	
0.15	0.025	0	
0.15	0.075	0	
0.15	0.125	0	
0.15	0.175	0	
0.15	0.225	0	
0.15	0.275	0	
0.15	0.325	0	
0.15	0.375	0	
0.15	0.425	0	
0.15	0.475	0	
0.15	0.525	0	
0.15	0.575	0	
0.15	0.625	0	
0.15	0.675	0	
0.15	0.725	0	
0.15	0.775	0	
0.15	0.825	0	
0.15	0.875	0	
0.15	0.925	0	
0.15	0.975	0	
0.2	0.025	0	
0.2	0.075	0	
0.2	0.125	0	
0.2	0.175	0	
0.2	0.225	0	
0.2	0.275	0	
0.2	0.325	0	
0.2	0.375	0	
0.2	0.425	0	
0.2	0.475	0	
0.2	0.525	0	
0.2	0.575	0	
0.2	0.625	0	
0.2	0.675	0	
0.2	0.725	0	
0.2	0.775	0	
0.2	0.825	0	
0.2	0.875	0	
0.2	0.925	0	
0.2	0.975	0	
0.25	0.025	0	
0.25	0.075	0	
0.25	0.125	0	
0.25	0.175	0	
0.25	0.225	0	
0.25	0.275	0	
0.25	0.325	0	
0.25	0.375	0	
0.25	0.425	0	
0.25	0.475	0	
0.25	0.525	0	
0.25	0.575	0	
0.25	0.625	0	
0.25	0.675	0	
0.25	0.725	0	
0.25	0.775	0	
0.25	0.825	0	
0.25	0.875	0	
0.25	0.925	0	
0.25	0.975	0	
0.3	0.025	0	
0.3	0.075	0	
0.3	0.125	0	
0.3	0.175	0	
0.3	0.225	0	
0.3	0.275	0	
0.3	0.325	0	
0.3	0.375	0	
0.3	0.425	0	
0.3	0.475	0	
0.3	0.525	0	
0.3	0.575	0	
0.3	0.625	0	
0.3	0.675	0	
0.3	0.725	0	
0.3	0.775	0	
0.3	0.825	0	
0.3	0.875	0	
0.3	0.925	0	
0.3	0.975	0	
0.35	0.025	0	
0.35	0.075	0	
0.35	0.125	0	
0.35	0.175	0	
0.35	0.225	0	
0.35	0.275	0	
0.35	0.325	0	
0.35	0.375	0	
0.35	0.425	0	
0.35	0.475	0	
0.35	0.525	0	
0.35	0.575	0	
0.35	0.625	0	
0.35	0.675	0	
0.35	0.725	0	
0.35	0.775	0	
0.35	0.825	0	
0.35	0.875	0	
0.35	0.925	0	
0.35	0.975	0	
0.4	0.025	0	
0.4	0.075	0	
0.4	0.125	0	
0.4	0.175	0	
0.4	0.225	0	
0.4	0.275	0	
0.4	0.325	0	
0.4	0.375	0	
0.4	0.425	0	
0.4	0.475	0	
0.4	0.525	0	
0.4	0.575	0	
0.4	0.625	0	
0.4	0.675	0	
0.4	0.725	0	
0.4	0.775	0	
0.4	0.825	0	
0.4	0.875	0	
0.4	0.925	0	
0.4	0.975	0	
0.45	0.025	0	
0.45	0.075	0	
0.45	0.125	0	
0.45	0.175	0	
0.45	0.225	0	
0.45	0.275	0	
0.45	0.325	0	
0.45	0.375	0	
0.45	0.425	0	
0.45	0.475	0	
0.45	0.525	0	
0.45	0.575	0	
0.45	0.625	0	
0.45	0.675	0	
0.45	0.725	0	
0.45	0.775	0	
0.45	0.825	0	
0.45	0.875	0	
0.45	0.925	0	
0.45	0.975	0	
0.5	0.025	0	
0.5	0.075	0	
0.5	0.125	0	
0.5	0.175	0	
0.5	0.225	0	
0.5	0.275	0	
0.5	0.325	0	
0.5	0.375	0	
0.5	0.425	0	
0.5	0.475	0	
0.5	0.525	0	
0.5	0.575	0	
0.5	0.625	0	
0.5	0.675	0	
0.5	0.725	0	
0.5	0.775	0	
0.5	0.825	0	
0.5	0.875	0	
0.5	0.925	0	
0.5	0.975	0	
0.55	0.025	0	
0.55	0.075	0	
0.55	0.125	0	
0.55	0.175	0	
0.55	0.225	0	
0.55	0.275	0	
0.55	0.325	0	
0.55	0.375	0	
0.55	0.425	0	
0.55	0.475	0	
0.55	0.525	0	
0.55	0.575	0	
0.55	0.625	0	
0.55	0.675	0	
0.55	0.725	0	
0.55	0.775	0	
0.55	0.825	0	
0.55	0.875	0	
0.55	0.925	0	
0.55	0.975	0	
0.6	0.025	0	
0.6	0.075	0	
0.6	0.125	0	
0.6	0.175	0	
0.6	0.225	0	
0.6	0.275	0	
0.6	0.325	0	
0.6	0.375	0	
0.6	0.425	0	
0.6	0.475	0	
0.6	0.525	0	
0.6	0.575	0	
0.6	0.625	0	
0.6	0.675	0	
0.6	0.725	0	
0.6	0.775	0	
0.6	0.825	0	
0.6	0.875	0	
0.6	0.925	0	
0.6	0.975	0	
0.65	0.025	0	
0.65	0.075	0	
0.65	0.125	0	
0.65	0.175	0	
0.65	0.225	0	
0.65	0.275	0	
0.65	0.325	0	
0.65	0.375	0	
0.65	0.425	0	
0.65	0.475	0	
0.65	0.525	0	
0.65	0.575	0	
0.65	0.625	0	
0.65	0.675	0	
0.65	0.725	0	
0.65	0.775	0	
0.65	0.825	0	
0.65	0.875	0	
0.65	0.925	0	
0.65	0.975	0	
0.7	0.025	0	
0.7	0.075	0	
0.7	0.125	0	
0.7	0.175	0	
0.7	0.225	0	
0.7	0.275	0	
0.7	0.325	0	
0.7	0.375	0	
0.7	0.425	0	
0.7	0.475	0	
0.7	0.525	0	
0.7	0.575	0	
0.7	0.625	0	
0.7	0.675	0	
0.7	0.725	0	
0.7	0.775	0	
0.7	0.825	0	
0.7	0.875	0	
0.7	0.925	0	
0.7	0.975	0	
0.75	0.025	0	
0.75	0.075	0	
0.75	0.125	0	
0.75	0.175	0	
0.75	0.225	0	
0.75	0.275	0	
0.75	0.325	0	
0.75	0.375	0	
0.75	0.425	0	
0.75	0.475	0	
0.75	0.525	0	
0.75	0.575	0	
0.75	0.625	0	
0.75	0.675	0	
0.75	0.725	0	
0.75	0.775	0	
0.75	0.825	0	
0.75	0.875	0	
0.75	0.925	0	
0.75	0.975	0	
0.8	0.025	0	
0.8	0.075	0	
0.8	0.125	0	
0.8	0.175	0	
0.8	0.225	0	
0.8	0.275	0	
0.8	0.325	0	
0.8	0.375	0	
0.8	0.425	0	
0.8	0.475	0	
0.8	0.525	0	
0.8	0.575	0	
0.8	0.625	0	
0.8	0.675	0	
0.8	0.725	0	
0.8	0.775	0	
0.8	0.825	0	
0.8	0.875	0	
0.8	0.925	0	
0.8	0.975	0	
0.85	0.025	0	
0.85	0.075	0	
0.85	0.125	0	
0.85	0.175	0	
0.85	0.225	0	
0.85	0.275	0	
0.85	0.325	0	
0.85	0.375	0	
0.85	0.425	0	
0.85	0.475	0	
0.85	0.525	0	
0.85	0.575	0	
0.85	0.625	0	
0.85	0.675	0	
0.85	0.725	0	
0.85	0.775	0	
0.85	0.825	0	
0.85	0.875	0	
0.85	0.925	0	
[...]
POINT_DATA	1281
VECTORS u float
0	0	0	
0	0	0	
0	0	0	
0	0	0	
0	0	0	
0	0	0	
0	0	0	
0	0	0	
0	0	0	
0	0	0	
0	0	0	
0	0	0	
0	0	0	
0	0	0	
0	0	0	
0	0	0	
0	0	0	
0	0	0	
0	0	0	
0	0	0	
1	0	0	
0	0	0	
-0.00544249	0.0054484	0	
-0.0136022	0.0247307	0	
-0.0188843	0.0560243	0	
-0.0204331	0.0932516	0	
-0.0191151	0.130536	0	
-0.0159314	0.163554	0	
-0.0118922	0.189791	0	
-0.00783387	0.208417	0	
-0.00437938	0.219951	0	
-0.00198862	0.225911	0	
-0.000816254	0.228382	0	
-0.00113136	0.229787	0	
-0.00258148	0.232435	0	
-0.00614745	0.238959	0	
-0.0102489	0.251159	0	
-0.0198589	0.273068	0	
-0.0269054	0.300512	0	
-0.0470232	0.342213	0	
0.066927	0.198071	0	
1	0	0	
0	0	0	
-0.0252214	0.014326	0	
-0.0513866	0.0532024	0	
-0.0676418	0.108846	0	
-0.0723099	0.172096	0	
-0.0674782	0.234335	0	
-0.0563721	0.289066	0	
-0.0422551	0.332419	0	
-0.0279514	0.363048	0	
-0.0156369	0.381703	0	
-0.00674939	0.390653	0	
-0.0020338	0.393021	0	
-0.00158807	0.39213	0	
-0.00521115	0.390903	0	
-0.0122243	0.391285	0	
-0.0221483	0.39334	0	
-0.0315204	0.393217	0	
-0.0326675	0.377306	0	
0.0243099	0.305457	0	
0.256631	0.163101	0	
1	0	0	
0	0	0	
-0.0600566	0.0222342	0	
-0.110093	0.0783281	0	
-0.139132	0.154053	0	
-0.146082	0.236732	0	
-0.135081	0.315891	0	
-0.112168	0.384007	0	
-0.0835142	0.436735	0	
-0.0545097	0.47268	0	
-0.0293224	0.492894	0	
-0.0106654	0.500155	0	
0.000271249	0.498092	0	
0.00370396	0.490214	0	
0.00103144	0.478949	0	
-0.00523402	0.46466	0	
-0.0107325	0.444493	0	
-0.00637148	0.410304	0	
0.0295206	0.347229	0	
0.148399	0.237503	0	
0.448608	0.0801455	0	
1	0	0	
0	0	0	
-0.107766	0.0287481	0	
-0.186608	0.0993133	0	
-0.228444	0.191154	0	
-0.23521	0.287895	0	
-0.214478	0.377498	0	
-0.175831	0.452048	0	
-0.128736	0.507328	0	
-0.08142	0.542306	0	
-0.0402359	0.558532	0	
-0.00921599	0.559366	0	
0.0101964	0.548912	0	
0.0190985	0.530764	0	
0.0208016	0.506802	0	
0.0206887	0.476254	0	
0.0270315	0.435038	0	
0.0536184	0.375701	0	
0.12493	0.289441	0	
0.280501	0.17437	0	
0.566721	0.0596936	0	
1	0	0	
0	0	0	
-0.166326	0.0343926	0	
-0.277522	0.116833	0	
-0.330749	0.220404	0	
-0.333673	0.32546	0	
-0.299029	0.419029	0	
-0.240695	0.493449	0	
-0.17167	0.545103	0	
-0.103097	0.57358	0	
-0.0436131	0.581092	0	
0.00138652	0.571783	0	
0.0304173	0.550545	0	
0.0459799	0.521396	0	
0.0538873	0.486067	0	
0.0625075	0.443388	0	
0.0829235	0.389597	0	
0.130287	0.319733	0	
0.225375	0.231115	0	
0.393387	0.130184	0	
0.654071	0.0383517	0	
1	0	0	
0	0	0	
-0.234215	0.0396134	0	
-0.378913	0.130807	0	
-0.440197	0.240412	0	
-0.434672	0.346559	0	
-0.3819	0.436733	0	
-0.300492	0.504421	0	
-0.206878	0.546982	0	
-0.115001	0.564645	0	
-0.035905	0.560216	0	
0.0233687	0.538786	0	
0.0613515	0.506542	0	
0.0825748	0.468455	0	
0.0959231	0.426365	0	
0.112555	0.378919	0	
0.145035	0.322928	0	
0.207543	0.255496	0	
0.315596	0.17708	0	
0.48317	0.0952723	0	
0.715439	0.0285759	0	
1	0	0	
0	0	0	
-0.309544	0.0438742	0	
-0.485134	0.139179	0	
-0.548734	0.245921	0	
-0.52981	0.343282	0	
-0.455755	0.42135	0	
-0.349529	0.475734	0	
-0.230336	0.504937	0	
-0.114491	0.509507	0	
-0.0156699	0.49231	0	
0.0566866	0.459245	0	
0.10073	0.418453	0	
0.124099	0.376413	0	
0.139835	0.334736	0	
0.161589	0.291283	0	
0.20232	0.242875	0	
0.274219	0.187559	0	
0.388004	0.126629	0	
0.550354	0.0665215	0	
0.759425	0.0188922	0	
1	0	0	
0	0	0	
-0.388473	0.0464795	0	
-0.585605	0.134428	0	
-0.643944	0.223847	0	
-0.608121	0.299197	0	
-0.512421	0.355354	0	
-0.382722	0.390517	0	
-0.239783	0.404118	0	
-0.101527	0.396471	0	
0.0158755	0.369543	0	
0.0985491	0.329073	0	
0.143168	0.286087	0	
0.162812	0.248985	0	
0.176846	0.217191	0	
0.200505	0.1867	0	
0.245936	0.154079	0	
0.323066	0.117642	0	
0.438954	0.0784052	0	
0.595812	0.0405953	0	
0.788045	0.0116622	0	
1	0	0	
0	0	0	
-0.458684	0.038158	0	
-0.663229	0.098401	0	
-0.710314	0.148523	0	
-0.658765	0.186944	0	
-0.545764	0.212016	0	
-0.398295	0.223795	0	
-0.237518	0.222142	0	
-0.0818663	0.207215	0	
0.0505462	0.179614	0	
0.140262	0.142994	0	
0.176794	0.111777	0	
0.187715	0.0926306	0	
0.197642	0.0815137	0	
0.221516	0.0716693	0	
0.269547	0.0606245	0	
0.349689	0.0471519	0	
0.466653	0.0317475	0	
0.620265	0.0164847	0	
0.80333	0.00462276	0	
1	0	0	
0	0	0	
-0.482883	-0.0204581	0	
-0.686403	-0.02156	0	
-0.72577	-0.0298031	0	
-0.666552	-0.0390171	0	
-0.545778	-0.0502459	0	
-0.390613	-0.0631608	0	
-0.22229	-0.0775745	0	
-0.0594519	-0.0927024	0	
0.0782147	-0.107977	0	
0.164273	-0.115668	0	
0.182246	-0.0885302	0	
0.186937	-0.0763261	0	
0.195053	-0.0600412	0	
0.21974	-0.0456428	0	
0.269757	-0.0328409	0	
0.352098	-0.0220662	0	
0.470598	-0.0132657	0	
0.624392	-0.00644956	0	
0.805976	-0.00181039	0	
1	0	0	
0	0	0	
-0.444501	-0.0787634	0	
-0.644564	-0.140858	0	
-0.687319	-0.206327	0	
-0.632195	-0.261885	0	
-0.51574	-0.307829	0	
-0.365141	-0.34343	0	
-0.202141	-0.368141	0	
-0.0466508	-0.379407	0	
0.0798133	-0.376929	0	
0.142724	-0.330687	0	
0.152572	-0.27015	0	
0.157885	-0.23198	0	
0.168155	-0.192322	0	
0.194836	-0.156119	0	
0.246569	-0.12146	0	
0.330604	-0.088007	0	
0.451408	-0.0562859	0	
0.608982	-0.0283985	0	
0.796739	-0.00796209	0	
1	0	0	
0	0	0	
-0.369636	-0.086602	0	
-0.557905	-0.174641	0	
-0.608259	-0.276501	0	
-0.565778	-0.365388	0	
-0.463788	-0.437987	0	
-0.328599	-0.491629	0	
-0.182353	-0.525142	0	
-0.0463257	-0.535744	0	
0.0575427	-0.526812	0	
0.0994096	-0.472502	0	
0.103469	-0.404279	0	
0.110275	-0.355165	0	
0.123104	-0.302683	0	
0.151254	-0.252216	0	
0.20333	-0.201274	0	
0.287643	-0.149252	0	
0.410685	-0.097305	0	
0.574931	-0.0497207	0	
0.775876	-0.0142045	0	
1	0	0	
0	0	0	
-0.286031	-0.083092	0	
-0.449332	-0.175766	0	
-0.502431	-0.29089	0	
-0.47473	-0.396521	0	
-0.39255	-0.484627	0	
-0.279511	-0.550019	0	
-0.156872	-0.590849	0	
-0.0456117	-0.605148	0	
0.0337625	-0.598959	0	
0.0568388	-0.549257	0	
0.0519906	-0.485834	0	
0.0569975	-0.438611	0	
0.0697254	-0.384651	0	
0.0967294	-0.329417	0	
0.146031	-0.270089	0	
0.22744	-0.205548	0	
0.350766	-0.137207	0	
0.522953	-0.0715289	0	
0.743531	-0.0202564	0	
1	0	0	
0	0	0	
-0.208394	-0.0777519	0	
-0.339218	-0.163136	0	
-0.388886	-0.276459	0	
-0.373736	-0.38475	0	
-0.312148	-0.477577	0	
-0.223492	-0.547899	0	
-0.126637	-0.593249	0	
-0.0406857	-0.612381	0	
0.0161539	-0.612862	0	
0.0224626	-0.572465	0	
0.00803635	-0.519722	0	
0.00853314	-0.482411	0	
0.0181245	-0.436222	0	
0.0404291	-0.385771	0	
0.0825194	-0.327144	0	
0.155767	-0.257784	0	
0.274591	-0.178073	0	
0.453201	-0.095543	0	
0.698196	-0.0285852	0	
1	0	0	
0	0	0	
-0.140353	-0.0712146	0	
-0.237714	-0.145233	0	
-0.279783	-0.247846	0	
-0.273634	-0.348891	0	
-0.230606	-0.437711	0	
-0.165286	-0.506487	0	
-0.0931288	-0.552395	0	
-0.0304715	-0.574554	0	
0.00694215	-0.581343	0	
-0.000607519	-0.55094	0	
-0.0233452	-0.511198	0	
-0.0277791	-0.488448	0	
-0.0229921	-0.456884	0	
-0.00823357	-0.419771	0	
0.0220558	-0.371517	0	
0.0802562	-0.306906	0	
0.186091	-0.222955	0	
0.364984	-0.12596	0	
0.637958	-0.0370783	0	
1	0	0	
0	0	0	
-0.0831485	-0.0655293	0	
-0.150238	-0.124741	0	
-0.183043	-0.211766	0	
-0.182609	-0.299103	0	
-0.154937	-0.377501	0	
-0.11015	-0.439215	0	
-0.0598959	-0.481266	0	
-0.0171904	-0.502978	0	
0.00482978	-0.513327	0	
-0.0123792	-0.491109	0	
-0.0400735	-0.464177	0	
-0.0475258	-0.457898	0	
-0.0470013	-0.445074	0	
-0.0405734	-0.427816	0	
-0.0249377	-0.39922	0	
0.0114165	-0.351133	0	
0.0922043	-0.274337	0	
0.257223	-0.16681	0	
0.55383	-0.0574829	0	
1	0	0	
0	0	0	
-0.0381672	-0.0578547	0	
-0.0796881	-0.102983	0	
-0.10332	-0.170641	0	
-0.10594	-0.240046	0	
-0.0901487	-0.303647	0	
-0.0624801	-0.354061	0	
-0.0307749	-0.388254	0	
-0.00432045	-0.405586	0	
0.00677142	-0.415516	0	
-0.0148644	-0.39795	0	
-0.0424489	-0.381569	0	
-0.0492547	-0.390905	0	
-0.050571	-0.39718	0	
-0.0504604	-0.402051	0	
-0.0483041	-0.399276	0	
-0.0363914	-0.379988	0	
0.00661209	-0.329023	0	
0.132484	-0.228605	0	
0.440171	-0.0775943	0	
1	0	0	
0	0	0	
-0.0039011	-0.0542933	0	
-0.0301972	-0.0767456	0	
-0.0444568	-0.123261	0	
-0.047804	-0.172041	0	
-0.0404153	-0.217955	0	
-0.026425	-0.254202	0	
-0.00984503	-0.277661	0	
0.00374267	-0.287571	0	
0.00799928	-0.293385	0	
-0.0120193	-0.276374	0	
-0.0331166	-0.267165	0	
-0.0352112	-0.288411	0	
-0.0357622	-0.308523	0	
-0.0379066	-0.330082	0	
-0.0429239	-0.350308	0	
-0.0478182	-0.365116	0	
-0.0448813	-0.360938	0	
0.0160917	-0.297762	0	
0.252623	-0.161001	0	
1	0	0	
0	0	0	
0.00730199	-0.0380385	0	
0.00188161	-0.048461	0	
-0.00725378	-0.068188	0	
-0.00761676	-0.0950814	0	
-0.00608114	-0.12068	0	
-0.00161021	-0.140596	0	
0.00330601	-0.152095	0	
0.0077109	-0.154637	0	
0.00740445	-0.155651	0	
-0.00598038	-0.136881	0	
-0.0153787	-0.13051	0	
-0.0132315	-0.154817	0	
-0.0125306	-0.176008	0	
-0.0140871	-0.198528	0	
-0.0165158	-0.223603	0	
-0.0246765	-0.25568	0	
-0.0304654	-0.290871	0	
-0.0493185	-0.338067	0	
0.0659644	-0.197109	0	
1	0	0	
0	0	0	
0	0	0	
0	0	0	
0	0	0	
0	0	0	
0	0	0	
0	0	0	
0	0	0	
0	0	0	
0	0	0	
0	0	0	
0	0	0	
0	0	0	
0	0	0	
0	0	0	
0	0	0	
0	0	0	
0	0	0	
0	0	0	
0	0	0	
1	0	0	
0	0	0	
0	0	0	
0	0	0	
0	0	0	
0	0	0	
0	0	0	
0	0	0	
0	0	0	
0	0	0	
0	0	0	
0	0	0	
0	0	0	
0	0	0	
0	0	0	
0	0	0	
0	0	0	
0	0	0	
0	0	0	
0	0	0	
0	0	0	
-0.00127034	0.00127065	0	
-0.00972178	0.0130275	0	
-0.0166823	0.0391257	0	
-0.0200531	0.0742494	0	
-0.0200465	0.112221	0	
-0.0176762	0.147826	0	
-0.013957	0.177667	0	
-0.00982479	0.200106	0	
-0.00600585	0.215034	0	
-0.00305021	0.223533	0	
-0.00124154	0.227422	0	
-0.000825863	0.229057	0	
-0.00165346	0.230671	0	
-0.00423044	0.23505	0	
-0.00775804	0.24366	0	
-0.0149312	0.260855	0	
-0.0218158	0.284075	0	
-0.0387367	0.321105	0	
-0.0230283	0.308322	0	
0.313605	0.0868742	0	
-0.010949	0.0036517	0	
-0.03911	0.0311565	0	
-0.06096	0.0794535	0	
-0.0713225	0.140074	0	
-0.0708798	0.203796	0	
-0.0624949	0.262947	0	
-0.0494999	0.312317	0	
-0.0349778	0.349336	0	
-0.0214439	0.373774	0	
-0.0107095	0.387216	0	
-0.00385509	0.392453	0	
-0.00128645	0.392762	0	
-0.00291453	0.391399	0	
-0.00830932	0.390737	0	
-0.0168968	0.392275	0	
-0.0271337	0.393848	0	
-0.0347731	0.389654	0	
-0.0175768	0.353716	0	
0.097898	0.242595	0	
0.587419	0.0597152	0	
-0.0299438	0.005897	0	
-0.0872355	0.0469548	0	
-0.127439	0.114554	0	
-0.145167	0.195228	0	
-0.142461	0.277293	0	
-0.124718	0.351681	0	
-0.0982011	0.41246	0	
-0.0687692	0.456806	0	
-0.041241	0.484626	0	
-0.0190748	0.497939	0	
-0.00421933	0.500064	0	
0.00286517	0.494699	0	
0.00300797	0.484919	0	
-0.00184975	0.472293	0	
-0.00848885	0.45569	0	
-0.0107242	0.43013	0	
0.00512775	0.383799	0	
0.0735337	0.298634	0	
0.268258	0.162498	0	
0.687445	0.0182441	0	
-0.0563464	0.00769285	0	
-0.15152	0.0601649	0	
-0.212173	0.143689	0	
-0.235803	0.239761	0	
-0.227697	0.33418	0	
-0.196788	0.417011	0	
-0.152795	0.482245	0	
-0.104668	0.527327	0	
-0.0597618	0.552601	0	
-0.0233146	0.560637	0	
0.00192075	0.555318	0	
0.0157989	0.540651	0	
0.0205653	0.519516	0	
0.0205369	0.492563	0	
0.0223436	0.457452	0	
0.0365052	0.408301	0	
0.0814359	0.336474	0	
0.188959	0.234995	0	
0.405466	0.112439	0	
0.771949	0.019587	0	
-0.0892035	0.00923763	0	
-0.229234	0.0714361	0	
-0.311046	0.167355	0	
-0.337758	0.273701	0	
-0.320181	0.374282	0	
-0.271985	0.458963	0	
-0.206781	0.522238	0	
-0.136731	0.562175	0	
-0.0718114	0.579749	0	
-0.0191314	0.578253	0	
0.0178161	0.562387	0	
0.0395798	0.536813	0	
0.0504204	0.504539	0	
0.0574799	0.465869	0	
0.0703827	0.418233	0	
0.102034	0.356995	0	
0.170292	0.277671	0	
0.298779	0.181008	0	
0.511851	0.0813181	0	
0.817039	0.00909347	0	
-0.127658	0.0108614	0	
-0.317656	0.0810408	0	
-0.419073	0.184944	0	
-0.444582	0.294906	0	
-0.413002	0.394207	0	
-0.343707	0.473679	0	
-0.25429	0.528938	0	
-0.159966	0.55885	0	
-0.0733214	0.564955	0	
-0.00358252	0.551273	0	
0.0448394	0.523688	0	
0.073564	0.488061	0	
0.0895715	0.447953	0	
0.103072	0.403506	0	
0.125954	0.352223	0	
0.171563	0.290732	0	
0.254911	0.21736	0	
0.391357	0.135724	0	
0.591661	0.0582828	0	
0.853812	0.00831898	0	
-0.171832	0.0120417	0	
-0.413066	0.0881018	0	
-0.529119	0.192728	0	
-0.547804	0.296595	0	
-0.498158	0.385117	0	
-0.405393	0.45167	0	
-0.290471	0.493513	0	
-0.171066	0.510193	0	
-0.0622374	0.503319	0	
0.0241134	0.477258	0	
0.0819487	0.439282	0	
0.114269	0.397375	0	
0.132064	0.355605	0	
0.149134	0.313427	0	
0.178799	0.267862	0	
0.233652	0.216082	0	
0.325343	0.157502	0	
0.463029	0.0957874	0	
0.649729	0.040305	0	
0.877078	0.00474804	0	
-0.219644	0.0136983	0	
-0.507824	0.0886845	0	
-0.62925	0.180628	0	
-0.635514	0.263985	0	
-0.566064	0.330069	0	
-0.450494	0.375846	0	
-0.311791	0.40024	0	
-0.169067	0.403112	0	
-0.0392681	0.385428	0	
0.0620349	0.350571	0	
0.124977	0.307461	0	
0.154827	0.266621	0	
0.169525	0.232596	0	
0.18666	0.201996	0	
0.219828	0.170797	0	
0.280024	0.136326	0	
0.375911	0.0981656	0	
0.512443	0.0589169	0	
0.688303	0.0244253	0	
0.893214	0.00321796	0	
-0.270054	0.0114533	0	
-0.585411	0.068702	0	
-0.701972	0.124347	0	
-0.694028	0.168841	0	
-0.607856	0.200567	0	
-0.47469	0.21899	0	
-0.318146	0.224074	0	
-0.157663	0.215762	0	
-0.0113828	0.194404	0	
0.102139	0.161329	0	
0.164632	0.124522	0	
0.183631	0.100643	0	
0.191688	0.0865796	0	
0.207146	0.0765896	0	
0.241952	0.0664029	0	
0.305232	0.0541889	0	
0.403468	0.0395888	0	
0.539185	0.0239026	0	
0.708944	0.00990883	0	
0.9013	0.00117541	0	
-0.293797	-0.00802421	0	
-0.612071	-0.0177766	0	
-0.722889	-0.0228835	0	
-0.707204	-0.0315537	0	
-0.613289	-0.0418059	0	
-0.472395	-0.0538777	0	
-0.308208	-0.067614	0	
-0.140354	-0.0824004	0	
0.0126041	-0.0980991	0	
0.128547	-0.10921	0	
0.177029	-0.101129	0	
0.185043	-0.0830257	0	
0.18958	-0.06795	0	
0.204735	-0.0526741	0	
0.241084	-0.0389807	0	
0.306572	-0.027201	0	
0.406777	-0.0174157	0	
0.543417	-0.00960177	0	
0.712528	-0.00382808	0	
0.902846	-0.00047822	0	
-0.264703	-0.0274844	0	
-0.571867	-0.103893	0	
-0.684123	-0.168905	0	
-0.672312	-0.229531	0	
-0.582631	-0.280332	0	
-0.446135	-0.321143	0	
-0.286787	-0.351427	0	
-0.125078	-0.369845	0	
0.0191199	-0.374851	0	
0.119327	-0.352919	0	
0.149304	-0.299928	0	
0.155225	-0.250873	0	
0.161631	-0.211654	0	
0.17887	-0.173926	0	
0.217071	-0.138603	0	
0.284201	-0.104566	0	
0.386307	-0.0718218	0	
0.525878	-0.0416518	0	
0.699856	-0.0169752	0	
0.897656	-0.00205689	0	
-0.212195	-0.0298156	0	
-0.486678	-0.12263	0	
-0.599874	-0.221595	0	
-0.598941	-0.317822	0	
-0.52303	-0.398981	0	
-0.401468	-0.462277	0	
-0.258098	-0.506027	0	
-0.114248	-0.528448	0	
0.00874187	-0.529138	0	
0.0847725	-0.497782	0	
0.101512	-0.438419	0	
0.106572	-0.379921	0	
0.11534	-0.328624	0	
0.134727	-0.277386	0	
0.173758	-0.226838	0	
0.240997	-0.175369	0	
0.344069	-0.123053	0	
0.487789	-0.0725514	0	
0.671503	-0.0298217	0	
0.886495	-0.00388728	0	
-0.161636	-0.0278922	0	
-0.385477	-0.119981	0	
-0.490431	-0.228196	0	
-0.499623	-0.340263	0	
-0.441538	-0.438015	0	
-0.341146	-0.51514	0	
-0.220701	-0.568407	0	
-0.101123	-0.596083	0	
-0.00307261	-0.599563	0	
0.0505626	-0.572128	0	
0.0532814	-0.517802	0	
0.0536412	-0.462932	0	
0.0620188	-0.411774	0	
0.0809869	-0.357411	0	
0.117992	-0.300349	0	
0.182084	-0.23846	0	
0.283336	-0.171554	0	
0.430611	-0.103346	0	
0.627733	-0.0432342	0	
0.868323	-0.00510348	0	
-0.116419	-0.0265462	0	
-0.286895	-0.110416	0	
-0.375861	-0.214025	0	
-0.390925	-0.326762	0	
-0.350139	-0.428512	0	
-0.272623	-0.510629	0	
-0.177505	-0.568612	0	
-0.0837219	-0.600801	0	
-0.00997635	-0.609837	0	
0.0236877	-0.590366	0	
0.0132997	-0.546326	0	
0.00702375	-0.501978	0	
0.012028	-0.459802	0	
0.0273327	-0.411826	0	
0.0583546	-0.357671	0	
0.114375	-0.293901	0	
0.208527	-0.218923	0	
0.355772	-0.13629	0	
0.567699	-0.0583749	0	
0.844357	-0.00831385	0	
-0.0775132	-0.0242777	0	
-0.198268	-0.0985566	0	
-0.267929	-0.190344	0	
-0.28473	-0.294047	0	
-0.258456	-0.390259	0	
-0.202387	-0.469684	0	
-0.131663	-0.527174	0	
-0.0622027	-0.56107	0	
-0.0100864	-0.574688	0	
0.0068128	-0.563395	0	
-0.0145214	-0.531	0	
-0.027051	-0.500639	0	
-0.0265052	-0.473232	0	
-0.0170813	-0.439423	0	
0.00432362	-0.397395	0	
0.0465601	-0.341603	0	
0.125654	-0.267259	0	
0.264861	-0.17492	0	
0.489292	-0.0787239	0	
0.808276	-0.00874657	0	
-0.0461762	-0.0234305	0	
-0.122942	-0.0856787	0	
-0.173544	-0.162069	0	
-0.189319	-0.250767	0	
-0.174191	-0.334842	0	
-0.136581	-0.405553	0	
-0.0875227	-0.457583	0	
-0.0393723	-0.489279	0	
-0.00518044	-0.504363	0	
-0.000815407	-0.498884	0	
-0.029196	-0.477039	0	
-0.0453241	-0.461467	0	
-0.0480399	-0.451835	0	
-0.044586	-0.437463	0	
-0.0344363	-0.415453	0	
-0.0105654	-0.37832	0	
0.0440094	-0.316874	0	
0.160913	-0.223917	0	
0.38718	-0.107868	0	
0.765057	-0.0189937	0	
-0.0191582	-0.0199525	0	
-0.062747	-0.0723588	0	
-0.0967531	-0.130508	0	
-0.109816	-0.200236	0	
-0.1026	-0.267869	0	
-0.0799537	-0.325506	0	
-0.0492099	-0.367986	0	
-0.0188936	-0.393514	0	
0.00141559	-0.406094	0	
-0.00186679	-0.402583	0	
-0.0320014	-0.388363	0	
-0.0472432	-0.38613	0	
-0.0502344	-0.393992	0	
-0.0505901	-0.40021	0	
-0.0499314	-0.402058	0	
-0.0444664	-0.392716	0	
-0.0212911	-0.359897	0	
0.0541016	-0.285443	0	
0.255985	-0.157179	0	
0.6831	-0.0175631	0	
-0.00387818	-0.0218489	0	
-0.0199127	-0.0579197	0	
-0.041106	-0.0942115	0	
-0.0501398	-0.142726	0	
-0.0476975	-0.190915	0	
-0.0365215	-0.232717	0	
-0.0206569	-0.262701	0	
-0.00483256	-0.27925	0	
0.00516475	-0.285972	0	
-0.000651683	-0.280348	0	
-0.0259032	-0.269705	0	
-0.0350571	-0.277134	0	
-0.0354087	-0.298164	0	
-0.0364876	-0.31927	0	
-0.040084	-0.340571	0	
-0.0456096	-0.358711	0	
-0.0489943	-0.367823	0	
-0.0278058	-0.342078	0	
0.0917581	-0.238097	0	
0.58557	-0.0591759	0	
0.0164404	-0.0146669	0	
0.000428107	-0.0346521	0	
-0.00627881	-0.050806	0	
-0.0111665	-0.0745508	0	
-0.0102114	-0.102023	0	
-0.00713875	-0.125107	0	
-0.00229123	-0.14116	0	
0.00272707	-0.147829	0	
0.00541005	-0.148913	0	
-2.03194e-005	-0.13941	0	
-0.0143653	-0.130149	0	
-0.0141783	-0.142897	0	
-0.0125761	-0.165452	0	
-0.013149	-0.187082	0	
-0.0148185	-0.210082	0	
-0.0204476	-0.238733	0	
-0.0259921	-0.270875	0	
-0.0416742	-0.314515	0	
-0.0246678	-0.306105	0	
0.313321	-0.0866446	0	
0	0	0	
0	0	0	
0	0	0	
0	0	0	
0	0	0	
0	0	0	
0	0	0	
0	0	0	
0	0	0	
0	0	0	
0	0	0	
0	0	0	
0	0	0	
0	0	0	
0	0	0	
0	0	0	
0	0	0	
0	0	0	
0	0	0	
0	0	0	
0	0	0	
-0.00126406	0.00126791	0	
-0.00343468	0.0107102	0	
-0.00498093	0.0278113	0	
-0.00540282	0.0484045	0	
-0.00506837	0.0690638	0	
-0.00421661	0.08726	0	
-0.00314072	0.101625	0	
-0.00206657	0.111715	0	
-0.00114656	0.117891	0	
-0.000545247	0.121001	0	
-0.00021288	0.122366	0	
-0.000437403	0.123181	0	
-0.000672143	0.125367	0	
-0.00224864	0.129499	0	
-0.00252305	0.139658	0	
-0.00806202	0.153611	0	
-0.00671759	0.18603	0	
-0.0260867	0.221943	0	
-0.00414271	0.296641	0	
1	0	0	
0	0	0	
-0.0130893	0.00992595	0	
-0.0296933	0.0391421	0	
-0.0400306	0.0832145	0	
-0.0431323	0.13447	0	
-0.0403379	0.185441	0	
-0.033705	0.23051	0	
-0.0252529	0.266353	0	
-0.0167102	0.291824	0	
-0.00940249	0.307571	0	
-0.00420682	0.31554	0	
-0.00160764	0.31844	0	
-0.00171213	0.319273	0	
-0.00455968	0.320865	0	
-0.00994573	0.325725	0	
-0.0182548	0.33526	0	
-0.0287562	0.349668	0	
-0.0387953	0.361055	0	
-0.0311109	0.342089	0	
0.172957	0.172217	0	
1	0	0	
0	0	0	
-0.0407333	0.0184587	0	
-0.0782427	0.0662918	0	
-0.100834	0.132469	0	
-0.106883	0.206135	0	
-0.0993674	0.277702	0	
-0.0828449	0.340058	0	
-0.061975	0.389003	0	
-0.040818	0.42311	0	
-0.0225073	0.443258	0	
-0.00910673	0.451979	0	
-0.00159387	0.452681	0	
8.65166e-006	0.448831	0	
-0.00356617	0.443164	0	
-0.0109844	0.436875	0	
-0.0198202	0.428413	0	
-0.0243666	0.41131	0	
-0.00846096	0.369004	0	
0.082385	0.272759	0	
0.361526	0.117895	0	
1	0	0	
0	0	0	
-0.0823101	0.0256226	0	
-0.146266	0.0892893	0	
-0.181813	0.173581	0	
-0.189087	0.263964	0	
-0.173725	0.349134	0	
-0.143451	0.421301	0	
-0.106046	0.476118	0	
-0.0682987	0.512326	0	
-0.0354555	0.531204	0	
-0.0108856	0.535798	0	
0.00406456	0.529955	0	
0.00998195	0.517205	0	
0.00913017	0.499672	0	
0.00539438	0.477057	0	
0.00514836	0.445649	0	
0.0201575	0.397186	0	
0.0749934	0.319436	0	
0.215309	0.203211	0	
0.516552	0.0660836	0	
1	0	0	
0	0	0	
-0.135647	0.0316263	0	
-0.230423	0.108468	0	
-0.278266	0.206782	0	
-0.283663	0.308473	0	
-0.256529	0.400915	0	
-0.208521	0.476222	0	
-0.150862	0.530424	0	
-0.0932409	0.562779	0	
-0.0431399	0.575162	0	
-0.00525589	0.571297	0	
0.0189269	0.555627	0	
0.0311404	0.5319	0	
0.0358695	0.50187	0	
0.0400027	0.464496	0	
0.0533778	0.415735	0	
0.0909052	0.34932	0	
0.175558	0.259754	0	
0.340392	0.150595	0	
0.613535	0.0486171	0	