# vtk DataFile Version 4.1
vtk output
ASCII
DATASET UNSTRUCTURED_GRID

POINTS	49	float
0	0	0	
1	0	0	
2	0	0	
3	0	0	
0	1	0	
1	1	0	
2	1	0	
3	1	0	
0	2	0	
1	2	0	
2	2	0	
3	2	0	
0	3	0	
1	3	0	
2	3	0	
3	3	0	
0.5	0	0	
1.5	0	0	
2.5	0	0	
0	0.5	0	
0.5	0.5	0	
1	0.5	0	
1.5	0.5	0	
2	0.5	0	
2.5	0.5	0	
3	0.5	0	
0.5	1	0	
1.5	1	0	
2.5	1	0	
0	1.5	0	
0.5	1.5	0	
1	1.5	0	
1.5	1.5	0	
2	1.5	0	
2.5	1.5	0	
3	1.5	0	
0.5	2	0	
1.5	2	0	
2.5	2	0	
0	2.5	0	
0.5	2.5	0	
1	2.5	0	
1.5	2.5	0	
2	2.5	0	
2.5	2.5	0	
3	2.5	0	
0.5	3	0	
1.5	3	0	
2.5	3	0	

CELLS 18	72
3	0	1	4	
3	1	5	4	
3	1	2	5	
3	2	6	5	
3	2	3	6	
3	3	7	6	
3	4	5	8	
3	5	9	8	
3	5	6	9	
3	6	10	9	
3	6	7	10	
3	7	11	10	
3	8	9	12	
3	9	13	12	
3	9	10	13	
3	10	14	13	
3	10	11	14	
3	11	15	14	

CELL_TYPES	18
5
5
5
5
5
5
5
5
5
5
5
5
5
5
5
5
5
5

POINT_DATA	49
VECTORS u float
1.38889e-010	-1.23489e-020	1	
1.38889e-010	1.142e-021	0.666667	
1.38889e-010	2.45918e-021	0.333333	
1.38889e-010	1.54551e-020	-4.16667e-011	
0.666667	-2.43475e-011	1	
0.666667	-9.5718e-012	0.666667	
0.666667	8.57094e-012	0.333333	
0.666667	3.14037e-011	-2.12963e-010	
1	2.5352e-013	1	
1	-2.6155e-012	0.666667	
1	1.93187e-012	0.333333	
1	1.02915e-011	-3.24074e-010	
1	1.01749e-020	1	
1	-3.07819e-022	0.666667	
1	-1.46181e-021	0.333333	
1	-8.60366e-021	-1.71296e-010	
2.08333e-010	-1.82372e-020	0	
2.08333e-010	4.4975e-021	0	
2.08333e-010	7.59583e-021	0	
0.375	-2.46094e-011	0	
0.375	-1.50645e-011	0	
0.375	-6.79941e-013	0	
0.375	8.2818e-013	0	
0.375	5.83226e-012	0	
0.375	1.92719e-011	0	
0.375	3.10338e-011	0	
0.666667	-1.76197e-011	0	
0.666667	-1.63221e-012	0	
0.666667	2.47991e-011	0	
0.875	-2.12993e-011	0	
0.875	-1.61321e-011	0	
0.875	-9.69354e-012	0	
0.875	-4.34041e-012	0	
0.875	4.71781e-012	0	
0.875	1.88404e-011	0	
0.875	2.59935e-011	0	
1	1.49357e-012	0	
1	-4.54408e-012	0	
1	9.4861e-012	0	
1.04167	1.53253e-011	0	
1.04167	9.31686e-012	0	
1.04167	-1.11608e-012	0	
1.04167	-1.46837e-012	0	
1.04167	-1.7097e-012	0	
1.04167	-4.66822e-012	0	
1.04167	-1.03327e-011	0	
1	3.06947e-021	0	
1	-6.62812e-022	0	
1	-1.18821e-020	0	
