# vtk DataFile Version 4.1
vtk output
ASCII
DATASET UNSTRUCTURED_GRID

POINTS	6	float
0	0	0	
1	0	0	
2	0	0	
2	1	0	
1	1	0	
0	1	0	

CELLS 4	16
3	0	1	4	
3	1	2	3	
3	3	4	1	
3	4	5	0	

CELL_TYPES	4
5
5
5
5

POINT_DATA	6
VECTORS u float
-1.09824e-06	-5.51993e-07	0	
-0.000990892	-0.00307988	0	
-0.00116249	-0.00667144	0	
0.00155095	-0.00684955	0	
0.00138429	-0.00287841	0	
1.10449e-06	-0.00110119	0	
