# vtk DataFile Version 4.1
vtk output
ASCII
DATASET UNSTRUCTURED_GRID

POINTS	30501	float
0	0	0	
0	1	0	
0	2	0	
0	3	0	
0	4	0	
0	5	0	
0	6	0	
0	7	0	
0	8	0	
0	9	0	
0	10	0	
0	11	0	
0	12	0	
0	13	0	
0	14	0	
0	15	0	
0	16	0	
0	17	0	
0	18	0	
0	19	0	
0	20	0	
0	21	0	
0	22	0	
0	23	0	
0	24	0	
0	25	0	
0	26	0	
0	27	0	
0	28	0	
0	29	0	
0	30	0	
0	31	0	
0	32	0	
0	33	0	
0	34	0	
0	35	0	
0	36	0	
0	37	0	
0	38	0	
0	39	0	
0	40	0	
0	41	0	
0	42	0	
0	43	0	
0	44	0	
0	45	0	
0	46	0	
0	47	0	
0	48	0	
0	49	0	
0	50	0	
1	0	0	
1	1	0	
1	2	0	
1	3	0	
1	4	0	
1	5	0	
1	6	0	
1	7	0	
1	8	0	
1	9	0	
1	10	0	
1	11	0	
1	12	0	
1	13	0	
1	14	0	
1	15	0	
1	16	0	
1	17	0	
1	18	0	
1	19	0	
1	20	0	
1	21	0	
1	22	0	
1	23	0	
1	24	0	
1	25	0	
1	26	0	
1	27	0	
1	28	0	
1	29	0	
1	30	0	
1	31	0	
1	32	0	
1	33	0	
1	34	0	
1	35	0	
1	36	0	
1	37	0	
1	38	0	
1	39	0	
1	40	0	
1	41	0	
1	42	0	
1	43	0	
1	44	0	
1	45	0	
1	46	0	
1	47	0	
1	48	0	
1	49	0	
1	50	0	
2	0	0	
2	1	0	
2	2	0	
2	3	0	
2	4	0	
2	5	0	
2	6	0	
2	7	0	
2	8	0	
2	9	0	
2	10	0	
2	11	0	
2	12	0	
2	13	0	
2	14	0	
2	15	0	
2	16	0	
2	17	0	
2	18	0	
2	19	0	
2	20	0	
2	21	0	
2	22	0	
2	23	0	
2	24	0	
2	25	0	
2	26	0	
2	27	0	
2	28	0	
2	29	0	
2	30	0	
2	31	0	
2	32	0	
2	33	0	
2	34	0	
2	35	0	
2	36	0	
2	37	0	
2	38	0	
2	39	0	
2	40	0	
2	41	0	
2	42	0	
2	43	0	
2	44	0	
2	45	0	
2	46	0	
2	47	0	
2	48	0	
2	49	0	
2	50	0	
3	0	0	
3	1	0	
3	2	0	
3	3	0	
3	4	0	
3	5	0	
3	6	0	
3	7	0	
3	8	0	
3	9	0	
3	10	0	
3	11	0	
3	12	0	
3	13	0	
3	14	0	
3	15	0	
3	16	0	
3	17	0	
3	18	0	
3	19	0	
3	20	0	
3	21	0	
3	22	0	
3	23	0	
3	24	0	
3	25	0	
3	26	0	
3	27	0	
3	28	0	
3	29	0	
3	30	0	
3	31	0	
3	32	0	
3	33	0	
3	34	0	
3	35	0	
3	36	0	
3	37	0	
3	38	0	
3	39	0	
3	40	0	
3	41	0	
3	42	0	
3	43	0	
3	44	0	
3	45	0	
3	46	0	
3	47	0	
3	48	0	
3	49	0	
3	50	0	
4	0	0	
4	1	0	
4	2	0	
4	3	0	
4	4	0	
4	5	0	
4	6	0	
4	7	0	
4	8	0	
4	9	0	
4	10	0	
4	11	0	
4	12	0	
4	13	0	
4	14	0	
4	15	0	
4	16	0	
4	17	0	
4	18	0	
4	19	0	
4	20	0	
4	21	0	
4	22	0	
4	23	0	
4	24	0	
4	25	0	
4	26	0	
4	27	0	
4	28	0	
4	29	0	
4	30	0	
4	31	0	
4	32	0	
4	33	0	
4	34	0	
4	35	0	
4	36	0	
4	37	0	
4	38	0	
4	39	0	
4	40	0	
4	41	0	
4	42	0	
4	43	0	
4	44	0	
4	45	0	
4	46	0	
4	47	0	
4	48	0	
4	49	0	
4	50	0	
5	0	0	
5	1	0	
5	2	0	
5	3	0	
5	4	0	
5	5	0	
5	6	0	
5	7	0	
5	8	0	
5	9	0	
5	10	0	
5	11	0	
5	12	0	
5	13	0	
5	14	0	
5	15	0	
5	16	0	
5	17	0	
5	18	0	
5	19	0	
5	20	0	
5	21	0	
5	22	0	
5	23	0	
5	24	0	
5	25	0	
5	26	0	
5	27	0	
5	28	0	
5	29	0	
5	30	0	
5	31	0	
5	32	0	
5	33	0	
5	34	0	
5	35	0	
5	36	0	
5	37	0	
5	38	0	
5	39	0	
5	40	0	
5	41	0	
5	42	0	
5	43	0	
5	44	0	
5	45	0	
5	46	0	
5	47	0	
5	48	0	
5	49	0	
5	50	0	
6	0	0	
6	1	0	
6	2	0	
6	3	0	
6	4	0	
6	5	0	
6	6	0	
6	7	0	
6	8	0	
6	9	0	
6	10	0	
6	11	0	
6	12	0	
6	13	0	
6	14	0	
6	15	0	
6	16	0	
6	17	0	
6	18	0	
6	19	0	
6	20	0	
6	21	0	
6	22	0	
6	23	0	
6	24	0	
6	25	0	
6	26	0	
6	27	0	
6	28	0	
6	29	0	
6	30	0	
6	31	0	
6	32	0	
6	33	0	
6	34	0	
6	35	0	
6	36	0	
6	37	0	
6	38	0	
6	39	0	
6	40	0	
6	41	0	
6	42	0	
6	43	0	
6	44	0	
6	45	0	
6	46	0	
6	47	0	
6	48	0	
6	49	0	
6	50	0	
7	0	0	
7	1	0	
7	2	0	
7	3	0	
7	4	0	
7	5	0	
7	6	0	
7	7	0	
7	8	0	
7	9	0	
7	10	0	
7	11	0	
7	12	0	
7	13	0	
7	14	0	
7	15	0	
7	16	0	
7	17	0	
7	18	0	
7	19	0	
7	20	0	
7	21	0	
7	22	0	
7	23	0	
7	24	0	
7	25	0	
7	26	0	
7	27	0	
7	28	0	
7	29	0	
7	30	0	
7	31	0	
7	32	0	
7	33	0	
7	34	0	
7	35	0	
7	36	0	
7	37	0	
7	38	0	
7	39	0	
7	40	0	
7	41	0	
7	42	0	
7	43	0	
7	44	0	
7	45	0	
7	46	0	
7	47	0	
7	48	0	
7	49	0	
7	50	0	
8	0	0	
8	1	0	
8	2	0	
8	3	0	
8	4	0	
8	5	0	
8	6	0	
8	7	0	
8	8	0	
8	9	0	
8	10	0	
8	11	0	
8	12	0	
8	13	0	
8	14	0	
8	15	0	
8	16	0	
8	17	0	
8	18	0	
8	19	0	
8	20	0	
8	21	0	
8	22	0	
8	23	0	
8	24	0	
8	25	0	
8	26	0	
8	27	0	
8	28	0	
8	29	0	
8	30	0	
8	31	0	
8	32	0	
8	33	0	
8	34	0	
8	35	0	
8	36	0	
8	37	0	
8	38	0	
8	39	0	
8	40	0	
8	41	0	
8	42	0	
8	43	0	
8	44	0	
8	45	0	
8	46	0	
8	47	0	
8	48	0	
8	49	0	
8	50	0	
9	0	0	
9	1	0	
9	2	0	
9	3	0	
9	4	0	
9	5	0	
9	6	0	
9	7	0	
9	8	0	
9	9	0	
9	10	0	
9	11	0	
9	12	0	
9	13	0	
9	14	0	
9	15	0	
9	16	0	
9	17	0	
9	18	0	
9	19	0	
9	20	0	
9	21	0	
9	22	0	
9	23	0	
9	24	0	
9	25	0	
9	26	0	
9	27	0	
9	28	0	
9	29	0	
9	30	0	
9	31	0	
9	32	0	
9	33	0	
9	34	0	
9	35	0	
9	36	0	
9	37	0	
9	38	0	
9	39	0	
9	40	0	
9	41	0	
9	42	0	
9	43	0	
9	44	0	
9	45	0	
9	46	0	
9	47	0	
9	48	0	
9	49	0	
9	50	0	
10	0	0	
10	1	0	
10	2	0	
10	3	0	
10	4	0	
10	5	0	
10	6	0	
10	7	0	
10	8	0	
10	9	0	
10	10	0	
10	11	0	
10	12	0	
10	13	0	
10	14	0	
10	15	0	
10	16	0	
10	17	0	
10	18	0	
10	19	0	
10	20	0	
10	21	0	
10	22	0	
10	23	0	
10	24	0	
10	25	0	
10	26	0	
10	27	0	
10	28	0	
10	29	0	
10	30	0	
10	31	0	
10	32	0	
10	33	0	
10	34	0	
10	35	0	
10	36	0	
10	37	0	
10	38	0	
10	39	0	
10	40	0	
10	41	0	
10	42	0	
10	43	0	
10	44	0	
10	45	0	
10	46	0	
10	47	0	
10	48	0	
10	49	0	
10	50	0	
11	0	0	
11	1	0	
11	2	0	
11	3	0	
11	4	0	
11	5	0	
11	6	0	
11	7	0	
11	8	0	
11	9	0	
11	10	0	
11	11	0	
11	12	0	
11	13	0	
11	14	0	
11	15	0	
11	16	0	
11	17	0	
11	18	0	
11	19	0	
11	20	0	
11	21	0	
11	22	0	
11	23	0	
11	24	0	
11	25	0	
11	26	0	
11	27	0	
11	28	0	
11	29	0	
11	30	0	
11	31	0	
11	32	0	
11	33	0	
11	34	0	
11	35	0	
11	36	0	
11	37	0	
11	38	0	
11	39	0	
11	40	0	
11	41	0	
11	42	0	
11	43	0	
11	44	0	
11	45	0	
11	46	0	
11	47	0	
11	48	0	
11	49	0	
11	50	0	
12	0	0	
12	1	0	
12	2	0	
12	3	0	
12	4	0	
12	5	0	
12	6	0	
12	7	0	
12	8	0	
12	9	0	
12	10	0	
12	11	0	
12	12	0	
12	13	0	
12	14	0	
12	15	0	
12	16	0	
12	17	0	
12	18	0	
12	19	0	
12	20	0	
12	21	0	
12	22	0	
12	23	0	
12	24	0	
12	25	0	
12	26	0	
12	27	0	
12	28	0	
12	29	0	
12	30	0	
12	31	0	
12	32	0	
12	33	0	
12	34	0	
12	35	0	
12	36	0	
12	37	0	
12	38	0	
12	39	0	
12	40	0	
12	41	0	
12	42	0	
12	43	0	
12	44	0	
12	45	0	
12	46	0	
12	47	0	
12	48	0	
12	49	0	
12	50	0	
13	0	0	
13	1	0	
13	2	0	
13	3	0	
13	4	0	
13	5	0	
13	6	0	
13	7	0	
13	8	0	
13	9	0	
13	10	0	
13	11	0	
13	12	0	
13	13	0	
13	14	0	
13	15	0	
13	16	0	
13	17	0	
13	18	0	
13	19	0	
13	20	0	
13	21	0	
13	22	0	
13	23	0	
13	24	0	
13	25	0	
13	26	0	
13	27	0	
13	28	0	
13	29	0	
13	30	0	
13	31	0	
13	32	0	
13	33	0	
13	34	0	
13	35	0	
13	36	0	
13	37	0	
13	38	0	
13	39	0	
13	40	0	
13	41	0	
13	42	0	
13	43	0	
13	44	0	
13	45	0	
13	46	0	
13	47	0	
13	48	0	
13	49	0	
13	50	0	
14	0	0	
14	1	0	
14	2	0	
14	3	0	
14	4	0	
14	5	0	
14	6	0	
14	7	0	
14	8	0	
14	9	0	
14	10	0	
14	11	0	
14	12	0	
14	13	0	
14	14	0	
14	15	0	
14	16	0	
14	17	0	
14	18	0	
14	19	0	
14	20	0	
14	21	0	
14	22	0	
14	23	0	
14	24	0	
14	25	0	
14	26	0	
14	27	0	
14	28	0	
14	29	0	
14	30	0	
14	31	0	
14	32	0	
14	33	0	
14	34	0	
14	35	0	
14	36	0	
14	37	0	
14	38	0	
14	39	0	
14	40	0	
14	41	0	
14	42	0	
14	43	0	
14	44	0	
14	45	0	
14	46	0	
14	47	0	
14	48	0	
14	49	0	
14	50	0	
15	0	0	
15	1	0	
15	2	0	
15	3	0	
15	4	0	
15	5	0	
15	6	0	
15	7	0	
15	8	0	
15	9	0	
15	10	0	
15	11	0	
15	12	0	
15	13	0	
15	14	0	
15	15	0	
15	16	0	
15	17	0	
15	18	0	
15	19	0	
15	20	0	
15	21	0	
15	22	0	
15	23	0	
15	24	0	
15	25	0	
15	26	0	
15	27	0	
15	28	0	
15	29	0	
15	30	0	
15	31	0	
15	32	0	
15	33	0	
15	34	0	
15	35	0	
15	36	0	
15	37	0	
15	38	0	
15	39	0	
15	40	0	
15	41	0	
15	42	0	
15	43	0	
15	44	0	
15	45	0	
15	46	0	
15	47	0	
15	48	0	
15	49	0	
15	50	0	
16	0	0	
16	1	0	
16	2	0	
16	3	0	
16	4	0	
16	5	0	
16	6	0	
16	7	0	
16	8	0	
16	9	0	
16	10	0	
16	11	0	
16	12	0	
16	13	0	
16	14	0	
16	15	0	
16	16	0	
16	17	0	
16	18	0	
16	19	0	
16	20	0	
16	21	0	
16	22	0	
16	23	0	
16	24	0	
16	25	0	
16	26	0	
16	27	0	
16	28	0	
16	29	0	
16	30	0	
16	31	0	
16	32	0	
16	33	0	
16	34	0	
16	35	0	
16	36	0	
16	37	0	
16	38	0	
16	39	0	
16	40	0	
16	41	0	
16	42	0	
16	43	0	
16	44	0	
16	45	0	
16	46	0	
16	47	0	
16	48	0	
16	49	0	
16	50	0	
17	0	0	
17	1	0	
17	2	0	
17	3	0	
17	4	0	
17	5	0	
17	6	0	
17	7	0	
17	8	0	
17	9	0	
17	10	0	
17	11	0	
17	12	0	
17	13	0	
17	14	0	
17	15	0	
17	16	0	
17	17	0	
17	18	0	
17	19	0	
17	20	0	
17	21	0	
17	22	0	
17	23	0	
17	24	0	
17	25	0	
17	26	0	
17	27	0	
17	28	0	
17	29	0	
17	30	0	
17	31	0	
17	32	0	
17	33	0	
17	34	0	
17	35	0	
17	36	0	
17	37	0	
17	38	0	
17	39	0	
17	40	0	
17	41	0	
17	42	0	
17	43	0	
17	44	0	
17	45	0	
17	46	0	
17	47	0	
17	48	0	
17	49	0	
17	50	0	
18	0	0	
18	1	0	
18	2	0	
18	3	0	
18	4	0	
18	5	0	
18	6	0	
18	7	0	
18	8	0	
18	9	0	
18	10	0	
18	11	0	
18	12	0	
18	13	0	
18	14	0	
18	15	0	
18	16	0	
18	17	0	
18	18	0	
18	19	0	
18	20	0	
18	21	0	
18	22	0	
18	23	0	
18	24	0	
18	25	0	
18	26	0	
18	27	0	
18	28	0	
18	29	0	
18	30	0	
18	31	0	
18	32	0	
18	33	0	
18	34	0	
18	35	0	
18	36	0	
18	37	0	
18	38	0	
18	39	0	
18	40	0	
18	41	0	
18	42	0	
18	43	0	
18	44	0	
18	45	0	
18	46	0	
18	47	0	
18	48	0	
18	49	0	
18	50	0	
19	0	0	
19	1	0	
19	2	0	
19	3	0	
19	4	0	
19	5	0	
19	6	0	
19	7	0	
19	8	0	
19	9	0	
19	10	0	
19	11	0	
19	12	0	
19	13	0	
19	14	0	
19	15	0	
19	16	0	
19	17	0	
19	18	0	
19	19	0	
19	20	0	
19	21	0	
19	22	0	
19	23	0	
19	24	0	
19	25	0	
19	26	0	
19	27	0	
19	28	0	
19	29	0	
19	30	0	
19	31	0	
19	32	0	
19	33	0	
19	34	0	
19	35	0	
19	36	0	
19	37	0	
19	38	0	
19	39	0	
19	40	0	
19	41	0	
19	42	0	
19	43	0	
19	44	0	
19	45	0	
19	46	0	
19	47	0	
19	48	0	
19	49	0	
19	50	0	
20	0	0	
20	1	0	
20	2	0	
20	3	0	
20	4	0	
20	5	0	
20	6	0	
20	7	0	
20	8	0	
20	9	0	
20	10	0	
20	11	0	
20	12	0	
20	13	0	
20	14	0	
20	15	0	
20	16	0	
20	17	0	
20	18	0	
20	19	0	
20	20	0	
20	21	0	
20	22	0	
20	23	0	
20	24	0	
20	25	0	
20	26	0	
20	27	0	
20	28	0	
20	29	0	
20	30	0	
20	31	0	
20	32	0	
20	33	0	
20	34	0	
20	35	0	
20	36	0	
20	37	0	
20	38	0	
20	39	0	
20	40	0	
20	41	0	
20	42	0	
20	43	0	
20	44	0	
20	45	0	
20	46	0	
20	47	0	
20	48	0	
20	49	0	
20	50	0	
21	0	0	
21	1	0	
21	2	0	
21	3	0	
21	4	0	
21	5	0	
21	6	0	
21	7	0	
21	8	0	
21	9	0	
21	10	0	
21	11	0	
21	12	0	
21	13	0	
21	14	0	
21	15	0	
21	16	0	
21	17	0	
21	18	0	
21	19	0	
21	20	0	
21	21	0	
21	22	0	
21	23	0	
21	24	0	
21	25	0	
21	26	0	
21	27	0	
21	28	0	
21	29	0	
21	30	0	
21	31	0	
21	32	0	
21	33	0	
21	34	0	
21	35	0	
21	36	0	
21	37	0	
21	38	0	
21	39	0	
21	40	0	
21	41	0	
21	42	0	
21	43	0	
21	44	0	
21	45	0	
21	46	0	
21	47	0	
21	48	0	
21	49	0	
21	50	0	
22	0	0	
22	1	0	
22	2	0	
22	3	0	
22	4	0	
22	5	0	
22	6	0	
22	7	0	
22	8	0	
22	9	0	
22	10	0	
22	11	0	
22	12	0	
22	13	0	
22	14	0	
22	15	0	
22	16	0	
22	17	0	
22	18	0	
22	19	0	
22	20	0	
22	21	0	
22	22	0	
22	23	0	
22	24	0	
22	25	0	
22	26	0	
22	27	0	
22	28	0	
22	29	0	
22	30	0	
22	31	0	
22	32	0	
22	33	0	
22	34	0	
22	35	0	
22	36	0	
22	37	0	
22	38	0	
22	39	0	
22	40	0	
22	41	0	
22	42	0	
22	43	0	
22	44	0	
22	45	0	
22	46	0	
22	47	0	
22	48	0	
22	49	0	
22	50	0	
23	0	0	
23	1	0	
23	2	0	
23	3	0	
23	4	0	
23	5	0	
23	6	0	
23	7	0	
23	8	0	
23	9	0	
23	10	0	
[...]
POINT_DATA	30501
VECTORS d float
7.52875e-015	4.14901e-015	0	
2.71001e-015	1.14335e-015	0	
2.08246e-015	6.45571e-016	0	
1.76958e-015	5.93187e-016	0	
1.52257e-015	5.73917e-016	0	
1.33167e-015	5.6234e-016	0	
1.17341e-015	5.60425e-016	0	
1.04286e-015	5.60982e-016	0	
9.25521e-016	5.65296e-016	0	
8.25788e-016	5.72201e-016	0	
7.35539e-016	5.79624e-016	0	
6.55073e-016	5.88741e-016	0	
5.84217e-016	5.98037e-016	0	
5.1603e-016	6.06585e-016	0	
4.56162e-016	6.16747e-016	0	
4.03521e-016	6.24286e-016	0	
3.49429e-016	6.33662e-016	0	
3.0534e-016	6.40596e-016	0	
2.55303e-016	6.47148e-016	0	
2.21748e-016	6.55079e-016	0	
1.77353e-016	6.58334e-016	0	
1.3788e-016	6.65294e-016	0	
1.07039e-016	6.66352e-016	0	
6.65044e-017	6.69877e-016	0	
3.78248e-017	6.71766e-016	0	
-3.0974e-018	6.70819e-016	0	
-3.27496e-017	6.72052e-016	0	
-6.62664e-017	6.69258e-016	0	
-1.05724e-016	6.67586e-016	0	
-1.40345e-016	6.63306e-016	0	
-1.75234e-016	6.59776e-016	0	
-2.16454e-016	6.53461e-016	0	
-2.6228e-016	6.48098e-016	0	
-2.98342e-016	6.41094e-016	0	
-3.51567e-016	6.32318e-016	0	
-4.01983e-016	6.25766e-016	0	
-4.55256e-016	6.15647e-016	0	
-5.16152e-016	6.07113e-016	0	
-5.83376e-016	5.97733e-016	0	
-6.54362e-016	5.88419e-016	0	
-7.33711e-016	5.79621e-016	0	
-8.26159e-016	5.72051e-016	0	
-9.24876e-016	5.64864e-016	0	
-1.04129e-015	5.61161e-016	0	
-1.17203e-015	5.59209e-016	0	
-1.33299e-015	5.63083e-016	0	
-1.51853e-015	5.73554e-016	0	
-1.77165e-015	5.92906e-016	0	
-2.07982e-015	6.45991e-016	0	
-2.70939e-015	1.1417e-015	0	
-7.52646e-015	4.1485e-015	0	
0.000236424	0.0002128	0	
0.000137768	0.000153383	0	
9.98022e-005	0.000121421	0	
8.17481e-005	0.00010827	0	
6.9424e-005	0.000101103	0	
6.01662e-005	9.72324e-005	0	
5.27096e-005	9.52e-005	0	
4.64863e-005	9.43116e-005	0	
4.1165e-005	9.41618e-005	0	
3.65337e-005	9.4513e-005	0	
3.2451e-005	9.51934e-005	0	
2.88195e-005	9.60899e-005	0	
2.5557e-005	9.71213e-005	0	
2.26092e-005	9.82208e-005	0	
1.99335e-005	9.93473e-005	0	
1.74866e-005	0.000100466	0	
1.52377e-005	0.000101544	0	
1.31573e-005	0.000102556	0	
1.12192e-005	0.000103488	0	
9.40394e-006	0.000104319	0	
7.6916e-006	0.000105044	0	
6.0567e-006	0.000105649	0	
4.48896e-006	0.000106125	0	
2.97213e-006	0.000106472	0	
1.48684e-006	0.000106678	0	
1.87974e-008	0.00010675	0	
-1.45487e-006	0.000106682	0	
-2.9416e-006	0.000106472	0	
-4.45986e-006	0.000106123	0	
-6.02568e-006	0.000105639	0	
-7.65542e-006	0.000105036	0	
-9.37258e-006	0.000104309	0	
-1.1188e-005	0.000103475	0	
-1.31248e-005	0.000102547	0	
-1.52055e-005	0.000101533	0	
-1.74534e-005	0.000100461	0	
-1.99006e-005	9.93418e-005	0	
-2.25767e-005	9.82083e-005	0	
-2.55238e-005	9.71025e-005	0	
-2.87829e-005	9.60709e-005	0	
-3.24161e-005	9.51777e-005	0	
-3.64999e-005	9.44928e-005	0	
-4.11289e-005	9.41404e-005	0	
-4.64483e-005	9.42829e-005	0	
-5.2668e-005	9.51663e-005	0	
-6.01262e-005	9.72009e-005	0	
-6.93849e-005	0.000101063	0	
-8.17065e-005	0.000108225	0	
-9.97569e-005	0.000121369	0	
-0.000137702	0.000153315	0	
-0.000236328	0.000212707	0	
0.000389683	0.000364128	0	
0.000274766	0.000306159	0	
0.000209524	0.000263349	0	
0.000169857	0.000236622	0	
0.000142784	0.000220212	0	
0.000122664	0.000210295	0	
0.000106726	0.000204359	0	
9.36019e-005	0.00020102	0	
8.24921e-005	0.000199424	0	
7.2906e-005	0.000199024	0	
6.45218e-005	0.00019945	0	
5.71096e-005	0.00020044	0	
5.04948e-005	0.000201807	0	
4.45503e-005	0.00020341	0	
3.91757e-005	0.000205142	0	
3.4286e-005	0.00020692	0	
2.98134e-005	0.000208678	0	
2.56926e-005	0.000210364	0	
2.18702e-005	0.000211935	0	
1.83034e-005	0.000213356	0	
1.49482e-005	0.000214599	0	
1.17629e-005	0.000215645	0	
8.71182e-006	0.000216475	0	
5.76424e-006	0.000217074	0	
2.88314e-006	0.000217438	0	
3.354e-008	0.000217562	0	
-2.81846e-006	0.000217441	0	
-5.70146e-006	0.000217074	0	
-8.64649e-006	0.000216468	0	
-1.1695e-005	0.000215634	0	
-1.48787e-005	0.000214585	0	
-1.82365e-005	0.000213338	0	
-2.18086e-005	0.000211914	0	
-2.56289e-005	0.000210342	0	
-2.97499e-005	0.000208659	0	
-3.42228e-005	0.000206901	0	
-3.91075e-005	0.000205121	0	
-4.44801e-005	0.000203385	0	
-5.04239e-005	0.000201778	0	
-5.70397e-005	0.000200408	0	
-6.44534e-005	0.000199413	0	
-7.28346e-005	0.000198984	0	
-8.24159e-005	0.000199377	0	
-9.35215e-005	0.000200963	0	
-0.000106647	0.000204293	0	
-0.000122583	0.000210222	0	
-0.000142703	0.000220137	0	
-0.000169774	0.000236539	0	
-0.000209426	0.000263251	0	
-0.000274635	0.000306036	0	
-0.000389511	0.000363976	0	
0.000520174	0.000503306	0	
0.000402761	0.000451234	0	
0.000319223	0.000406694	0	
0.000261111	0.00037341	0	
0.000219294	0.000350338	0	
0.000187574	0.000334812	0	
0.000162421	0.000324628	0	
0.000141791	0.000318208	0	
0.000124431	0.000314454	0	
0.000109544	0.000312604	0	
9.66025e-005	0.000312116	0	
8.52259e-005	0.000312598	0	
7.51281e-005	0.00031376	0	
6.61014e-005	0.000315378	0	
5.79783e-005	0.000317279	0	
5.06231e-005	0.000319331	0	
4.39196e-005	0.000321429	0	
3.77721e-005	0.000323491	0	
3.2096e-005	0.000325444	0	
2.68205e-005	0.000327231	0	
2.18745e-005	0.000328812	0	
1.71926e-005	0.00033015	0	
1.27225e-005	0.00033122	0	
8.41326e-006	0.000331999	0	
4.20687e-006	0.000332472	0	
4.86733e-008	0.00033263	0	
-4.10904e-006	0.000332471	0	
-8.31444e-006	0.000331995	0	
-1.26229e-005	0.000331212	0	
-1.70893e-005	0.000330138	0	
-2.17685e-005	0.000328794	0	
-2.67189e-005	0.000327207	0	
-3.19997e-005	0.000325415	0	
-3.76776e-005	0.00032346	0	
-4.38256e-005	0.000321398	0	
-5.05254e-005	0.000319295	0	
-5.78752e-005	0.000317239	0	
-6.59952e-005	0.000315335	0	
-7.50229e-005	0.000313716	0	
-8.51186e-005	0.000312551	0	
-9.64961e-005	0.000312062	0	
-0.000109435	0.000312541	0	
-0.000124312	0.000314381	0	
-0.000141667	0.000318124	0	
-0.000162299	0.000324531	0	
-0.000187453	0.000334705	0	
-0.000219167	0.00035022	0	
-0.000260975	0.000373282	0	
-0.000319069	0.000406546	0	
-0.000402573	0.000451062	0	
-0.000519947	0.00050311	0	
0.000637374	0.000637451	0	
0.000516957	0.000590493	0	
0.000422969	0.000547981	0	
0.000351442	0.000513114	0	
0.000296699	0.000486442	0	
0.000253835	0.000466952	0	
0.000219366	0.000453188	0	
0.000190957	0.000443809	0	
0.000167053	0.000437737	0	
0.000146606	0.000434136	0	
0.00012889	0.000432371	0	
0.000113374	0.000431962	0	
9.96651e-005	0.000432535	0	
8.74607e-005	0.000433805	0	
7.65225e-005	0.000435543	0	
6.66604e-005	0.000437565	0	
5.77102e-005	0.000439726	0	
4.95338e-005	0.000441912	0	
4.20159e-005	0.000444029	0	
3.50534e-005	0.000446001	0	
2.85485e-005	0.000447764	0	
2.24138e-005	0.000449269	0	
1.6572e-005	0.000450478	0	
1.09487e-005	0.000451364	0	
5.47281e-006	0.000451904	0	
6.68843e-008	0.000452083	0	
-5.33965e-006	0.000451899	0	
-1.08182e-005	0.000451356	0	
-1.64392e-005	0.000450468	0	
-2.22737e-005	0.000449252	0	
-2.84058e-005	0.000447739	0	
-3.49152e-005	0.000445972	0	
-4.18844e-005	0.000443997	0	
-4.94074e-005	0.000441874	0	
-5.75811e-005	0.00043968	0	
-6.65247e-005	0.000437511	0	
-7.63833e-005	0.000435483	0	
-8.73214e-005	0.000433745	0	
-9.95252e-005	0.000432473	0	
-0.000113231	0.000431892	0	
-0.000128744	0.000432293	0	
-0.000146456	0.000434048	0	
-0.000166894	0.00043764	0	
-0.000190791	0.0004437	0	
-0.0002192	0.00045306	0	
-0.000253667	0.000466806	0	
-0.000296525	0.000486282	0	
-0.000351259	0.000512937	0	
-0.000422761	0.000547783	0	
-0.000516715	0.00059027	0	
-0.000637087	0.000637204	0	
0.000743629	0.000771065	0	
0.000620873	0.000728096	0	
0.000519744	0.000688254	0	
0.000438238	0.000653838	0	
0.000372862	0.000625831	0	
0.000320025	0.00060407	0	
0.00027671	0.000587774	0	
0.000240632	0.000575994	0	
0.000210132	0.000567824	0	
0.000184014	0.000562481	0	
0.000161397	0.000559324	0	
0.000141622	0.000557839	0	
0.000124196	0.000557608	0	
0.000108732	0.000558296	0	
9.49214e-005	0.000559632	0	
8.25095e-005	0.000561397	0	
7.12846e-005	0.000563415	0	
6.1071e-005	0.000565538	0	
5.17158e-005	0.000567647	0	
4.30767e-005	0.00056965	0	
3.50333e-005	0.000571468	0	
2.74769e-005	0.000573038	0	
2.03002e-005	0.000574304	0	
1.34043e-005	0.000575232	0	
6.6994e-006	0.000575797	0	
8.37829e-008	0.000575985	0	
-6.53177e-006	0.000575791	0	
-1.32357e-005	0.000575221	0	
-2.01292e-005	0.000574285	0	
-2.73035e-005	0.000573012	0	
-3.48591e-005	0.00057144	0	
-4.29033e-005	0.000569618	0	
-5.15453e-005	0.000567608	0	
-6.09068e-005	0.000565488	0	
-7.11198e-005	0.000563355	0	
-8.2337e-005	0.00056133	0	
-9.47456e-005	0.000559558	0	
-0.000108558	0.000558216	0	
-0.000124021	0.000557522	0	
-0.000141441	0.000557746	0	
-0.000161207	0.000559222	0	
-0.00018382	0.000562365	0	
-0.000209934	0.000567693	0	
-0.000240425	0.000575848	0	
-0.000276497	0.000587612	0	
-0.000319809	0.000603889	0	
-0.000372637	0.000625633	0	
-0.000437999	0.000653617	0	
-0.000519481	0.000688008	0	
-0.000620583	0.000727831	0	
-0.000743301	0.000770785	0	
0.000841219	0.000905047	0	
0.000716077	0.0008655	0	
0.000609528	0.000828387	0	
0.000520377	0.000795355	0	
0.000446368	0.000767361	0	
0.000384898	0.000744618	0	
0.000333518	0.0007268	0	
0.000290177	0.000713308	0	
0.000253261	0.000703458	0	
0.000221521	0.000696592	0	
0.000193984	0.000692121	0	
0.000169908	0.000689539	0	
0.000148716	0.00068842	0	
0.000129942	0.000688406	0	
0.000113213	0.000689202	0	
9.82211e-005	0.000690565	0	
8.47037e-005	0.000692291	0	
7.24419e-005	0.000694213	0	
6.12474e-005	0.000696192	0	
5.09419e-005	0.000698113	0	
4.13744e-005	0.000699884	0	
3.24171e-005	0.000701428	0	
2.39346e-005	0.000702684	0	
1.58e-005	0.000703609	0	
7.89528e-006	0.000704174	0	
1.03043e-007	0.000704362	0	
-7.6885e-006	0.000704166	0	
-1.55932e-005	0.000703594	0	
-2.37284e-005	0.000702661	0	
-3.22113e-005	0.000701398	0	
-4.11678e-005	0.000699846	0	
-5.07306e-005	0.000698067	0	
-6.10363e-005	0.000696138	0	
-7.22376e-005	0.000694152	0	
-8.45018e-005	0.00069222	0	
-9.8012e-005	0.000690484	0	
-0.000113	0.000689113	0	
-0.000129731	0.000688309	0	
-0.000148502	0.000688312	0	
-0.000169688	0.000689421	0	
-0.00019375	0.00069199	0	
-0.00022128	0.000696446	0	
-0.000253022	0.000703295	0	
-0.000289931	0.000713128	0	
-0.00033326	0.000726602	0	
-0.000384632	0.000744398	0	
-0.000446091	0.00076712	0	
-0.000520085	0.000795092	0	
-0.000609213	0.000828101	0	
-0.000715738	0.000865191	0	
-0.000840853	0.000904716	0	
0.0009313	0.00104016	0	
0.000803781	0.00100363	0	
0.000692795	0.000969125	0	
0.000597523	0.000937847	0	
0.000516414	0.000910613	0	
0.00044755	0.000887769	0	
0.000388985	0.000869248	0	
0.000338953	0.000854704	0	
0.000295961	0.000843657	0	
0.000258783	0.000835587	0	
0.000226422	0.000829992	0	
0.000198083	0.000826408	0	
0.000173129	0.000824424	0	
0.00015104	0.000823682	0	
0.000131383	0.000823882	0	
0.000113798	0.000824766	0	
9.79774e-005	0.000826117	0	
8.36646e-005	0.000827748	0	
7.06326e-005	0.000829507	0	
5.86716e-005	0.000831265	0	
4.76013e-005	0.000832915	0	
3.72616e-005	0.000834373	0	
2.74907e-005	0.000835572	0	
1.81393e-005	0.000836459	0	
9.06338e-006	0.000837004	0	
1.23612e-007	0.000837187	0	
-8.81817e-006	0.000836997	0	
-1.78964e-005	0.000836443	0	
-2.72463e-005	0.000835544	0	
-3.70167e-005	0.000834335	0	
-4.73557e-005	0.000832865	0	
-5.84236e-005	0.000831206	0	
-7.03867e-005	0.000829442	0	
-8.34228e-005	0.000827676	0	
-9.77352e-005	0.000826035	0	
-0.000113551	0.000824675	0	
-0.000131134	0.00082378	0	
-0.000150788	0.000823568	0	
-0.000172873	0.000824294	0	
-0.000197818	0.000826264	0	
-0.000226144	0.000829835	0	
-0.000258498	0.000835415	0	
-0.000295675	0.000843467	0	
-0.000338661	0.000854494	0	
-0.00038868	0.000869017	0	
-0.000447235	0.000887516	0	
-0.000516086	0.000910336	0	
-0.000597179	0.000937546	0	
-0.00069243	0.000968806	0	
-0.000803396	0.00100329	0	
-0.000930888	0.00103981	0	
0.00101467	0.00117678	0	
0.000884807	0.00114297	0	
0.000770006	0.00111093	0	
0.000669648	0.00108155	0	
0.000582596	0.00105549	0	
0.000507393	0.00103312	0	
0.000442491	0.0010145	0	
0.000386392	0.000999459	0	
0.000337757	0.000987675	0	
0.000295428	0.000978756	0	
0.000258424	0.000972287	0	
0.000225937	0.000967863	0	
0.000197291	0.000965108	0	
0.000171923	0.000963686	0	
0.000149358	0.000963299	0	
0.000129194	0.000963688	0	
0.000111084	0.000964626	0	
9.47298e-005	0.00096592	0	
7.98713e-005	0.000967408	0	
6.62715e-005	0.000968953	0	
5.37167e-005	0.000970439	0	
4.20111e-005	0.000971773	0	
3.09731e-005	0.00097288	0	
2.04284e-005	0.000973706	0	
1.02049e-005	0.000974215	0	
1.42774e-007	0.000974385	0	
-9.91982e-006	0.000974208	0	
-2.01448e-005	0.000973685	0	
-3.06904e-005	0.000972842	0	
-4.17255e-005	0.000971722	0	
-5.34284e-005	0.00097038	0	
-6.59879e-005	0.000968887	0	
-7.95932e-005	0.000967334	0	
-9.44503e-005	0.000965837	0	
-0.0001108	0.000964533	0	
-0.000128911	0.000963584	0	
-0.000149073	0.000963184	0	
-0.000171628	0.000963556	0	
-0.000196989	0.000964962	0	
-0.000225629	0.000967701	0	
-0.000258106	0.000972109	0	
-0.000295099	0.000978561	0	
-0.000337423	0.000987459	0	
-0.000386052	0.000999221	0	
-0.000442138	0.00101424	0	
-0.00050703	0.00103284	0	
-0.000582216	0.00105518	0	
-0.000669253	0.00108122	0	
-0.000769597	0.00111059	0	
-0.000884379	0.00114262	0	
-0.00101422	0.00117641	0	
0.00109193	0.00131513	0	
0.000959752	0.00128383	0	
0.000841565	0.00125411	0	
0.000736853	0.00122666	0	
0.000644735	0.001202	0	
0.000564067	0.00118047	0	
0.00049359	0.00116219	0	
0.00043204	0.0011471	0	
0.000378233	0.00113497	0	
0.000331097	0.00112554	0	
0.000289696	0.00111847	0	
0.000253233	0.0011134	0	
0.000221015	0.00111002	0	
0.00019245	0.00110801	0	
0.000167034	0.0011071	0	
0.000144335	0.00110702	0	
0.00012397	0.00110755	0	
0.000105601	0.0011085	0	
8.89395e-005	0.00110969	0	
7.37221e-005	0.001111	0	
5.9704e-005	0.0011123	0	
4.66573e-005	0.00111349	0	
3.43805e-005	0.00111449	0	
2.26665e-005	0.00111524	0	
1.13196e-005	0.0011157	0	
1.62083e-007	0.00111586	0	
-1.09927e-005	0.00111569	0	
-2.23381e-005	0.00111521	0	
-3.4056e-005	0.00111444	0	
-4.63324e-005	0.00111343	0	
-5.93787e-005	0.00111224	0	
-7.3405e-005	0.00111093	0	
-8.86263e-005	0.00110961	0	
-0.000105282	0.0011084	0	
-0.000123643	0.00110744	0	
-0.000144012	0.0011069	0	
-0.000166712	0.00110696	0	
-0.000192117	0.00110787	0	
-0.00022067	0.00110986	0	
-0.00025288	0.00111323	0	
-0.000289336	0.00111827	0	
-0.000330723	0.00112533	0	
-0.00037785	0.00113474	0	
-0.00043165	0.00114683	0	
-0.00049319	0.00116191	0	
-0.000563655	0.00118016	0	
-0.000644312	0.00120167	0	
-0.000736415	0.00122631	0	
-0.000841114	0.00125374	0	
-0.000959281	0.00128343	0	
-0.00109143	0.00131471	0	
0.00116349	0.00145529	0	
0.00102906	0.00142635	0	
0.000907812	0.00139885	0	
0.000799296	0.00137332	0	
0.000702786	0.00135018	0	
0.000617358	0.00132973	0	
0.00054197	0.0013121	0	
0.000475545	0.00129729	0	
0.000417034	0.00128516	0	
0.000365462	0.00127552	0	
0.000319957	0.0012681	0	
0.000279732	0.00126261	0	
0.0002441	0.00125876	0	
0.000212458	0.00125629	0	
0.000184287	0.00125493	0	
0.00015912	0.00125444	0	
0.000136549	0.0012546	0	
0.000116215	0.00125523	0	
9.77927e-005	0.00125615	0	
8.09923e-005	0.00125722	0	
6.55397e-005	0.00125833	0	
5.11839e-005	0.00125936	0	
3.76954e-005	0.00126025	0	
2.48446e-005	0.00126092	0	
1.24104e-005	0.00126134	0	
1.8312e-007	0.00126147	0	
-1.20403e-005	0.00126132	0	
-2.44708e-005	0.00126089	0	
-3.73274e-005	0.0012602	0	
-5.08218e-005	0.0012593	0	
-6.51794e-005	0.00125826	0	
-8.06361e-005	0.00125714	0	
-9.74419e-005	0.00125606	0	
-0.000115858	0.00125513	0	
-0.000136186	0.00125449	0	
-0.000158756	0.00125431	0	
-0.000183923	0.00125479	0	
-0.000212088	0.00125614	0	
-0.000243713	0.00125859	0	
-0.000279331	0.00126241	0	
-0.000319548	0.00126788	0	
-0.000365047	0.00127529	0	
-0.000416604	0.00128491	0	
-0.000475104	0.00129701	0	
-0.000541521	0.0013118	0	
-0.000616899	0.00132941	0	
-0.000702316	0.00134983	0	
-0.00079881	0.00137294	0	
-0.000907313	0.00139845	0	
-0.00102855	0.00142593	0	
-0.00116297	0.00145486	0	
0.00122968	0.00159733	0	
0.00109306	0.00157061	0	
0.000969012	0.00154524	0	
0.000857113	0.0015216	0	
0.000756749	0.00150006	0	
0.000667144	0.00148084	0	
0.000587414	0.00146409	0	
0.000516636	0.00144982	0	
0.000453877	0.00143797	0	
0.000398249	0.00142837	0	
0.000348939	0.00142084	0	
0.000305198	0.00141513	0	
0.000266348	0.00141099	0	
0.000231782	0.0014082	0	
0.000200967	0.0014065	0	
0.00017343	0.00140568	0	
0.000148735	0.00140553	0	
0.000126495	0.00140588	0	
0.000106366	0.00140655	0	
8.80314e-005	0.00140742	0	
7.11891e-005	0.00140834	0	
5.5565e-005	0.00140923	0	
4.0903e-005	0.00141	0	
2.69512e-005	0.00141059	0	
1.34632e-005	0.00141096	0	
2.05744e-007	0.00141108	0	
-1.30481e-005	0.00141094	0	
-2.65355e-005	0.00141056	0	
-4.04935e-005	0.00140995	0	
-5.5161e-005	0.00140916	0	
-7.07888e-005	0.00140826	0	
-8.76357e-005	0.00140733	0	
-0.000105976	0.00140645	0	
-0.000126102	0.00140577	0	
-0.000148336	0.00140541	0	
-0.000173025	0.00140554	0	
-0.000200562	0.00140635	0	
-0.000231368	0.00140802	0	
-0.000265916	0.0014108	0	
-0.000304752	0.00141491	0	
-0.000348486	0.0014206	0	
-0.000397789	0.00142812	0	
-0.000453402	0.0014377	0	
-0.00051615	0.00144953	0	
-0.00058692	0.00146378	0	
-0.000666638	0.00148051	0	
-0.000756232	0.0014997	0	
-0.000856583	0.00152122	0	
-0.000968472	0.00154483	0	
-0.00109252	0.00157019	0	
-0.00122913	0.00159689	0	
0.00129077	0.00174125	0	
0.00115203	0.00171667	0	
0.00102538	0.00169334	0	
0.000910442	0.00167158	0	
0.000806659	0.00165166	0	
0.000713357	0.00163378	0	
0.000629782	0.00161806	0	
0.000555121	0.00160454	0	
0.000488533	0.00159317	0	
0.000429219	0.00158384	0	
0.000376417	0.00157641	0	
0.000329417	0.00157066	0	
0.000287558	0.00156641	0	
0.000250244	0.00156343	0	
0.000216934	0.00156152	0	
0.00018714	0.00156047	0	
0.000160417	0.00156009	0	
0.000136356	0.00156021	0	
0.000114589	0.00156069	0	
9.47789e-005	0.00156137	0	
7.66066e-005	0.00156214	0	
5.97696e-005	0.0015629	0	
4.39807e-005	0.00156357	0	
2.89686e-005	0.00156409	0	
1.44703e-005	0.00156442	0	
2.27854e-007	0.00156452	0	
-1.40148e-005	0.0015644	0	
-2.85112e-005	0.00156406	0	
-4.35211e-005	0.00156352	0	
-5.93193e-005	0.00156283	0	
-7.61682e-005	0.00156206	0	
-9.43467e-005	0.00156127	0	
-0.000114158	0.00156058	0	
-0.000135924	0.0015601	0	
-0.000159981	0.00155996	0	
-0.000186697	0.00156032	0	
-0.000216485	0.00156135	0	
-0.000249786	0.00156324	0	
-0.000287085	0.0015662	0	
-0.00032893	0.00157044	0	
-0.00037592	0.00157616	0	
-0.000428712	0.00158358	0	
-0.000488013	0.00159289	0	
-0.000554589	0.00160424	0	
-0.000629245	0.00161774	0	
-0.000712807	0.00163344	0	
-0.000806092	0.00165129	0	
-0.000909867	0.00167119	0	
-0.0010248	0.00169293	0	
-0.00115145	0.00171623	0	
-0.00129018	0.0017408	0	
0.00134691	0.00188704	0	
0.00120614	0.00186452	0	
0.00107709	0.00184319	0	
0.000959394	0.00182328	0	
0.000852556	0.001805	0	
0.00075597	0.00178852	0	
0.000668974	0.00177395	0	
0.000590841	0.00176133	0	
0.000520818	0.00175062	0	
0.000458171	0.00174174	0	
0.000402187	0.00173458	0	
0.000352195	0.00172898	0	
0.000307555	0.00172476	0	
0.000267682	0.00172174	0	
0.000232036	0.00171973	0	
0.000200123	0.00171855	0	
0.000171489	0.00171803	0	
0.000145704	0.00171801	0	
0.000122386	0.00171833	0	
0.00010118	0.00171887	0	
8.17433e-005	0.00171952	0	
6.37501e-005	0.00172018	0	
4.68926e-005	0.00172077	0	
3.08785e-005	0.00172123	0	
1.54255e-005	0.00172153	0	
2.5111e-007	0.00172162	0	
-1.49289e-005	0.00172151	0	
-3.03807e-005	0.0017212	0	
-4.63893e-005	0.00172072	0	
-6.3255e-005	0.00172011	0	
-8.12605e-005	0.00171944	0	
-0.000100706	0.00171877	0	
-0.000121915	0.00171822	0	
-0.000145232	0.00171788	0	
-0.00017101	0.00171789	0	
-0.00019964	0.00171839	0	
-0.000231544	0.00171955	0	
-0.000267179	0.00172154	0	
-0.00030704	0.00172454	0	
-0.000351667	0.00172874	0	
-0.000401648	0.00173432	0	
-0.000457621	0.00174146	0	
-0.000520258	0.00175032	0	
-0.00059027	0.00176101	0	
-0.000668394	0.00177362	0	
-0.000755379	0.00178817	0	
-0.000851945	0.00180462	0	
-0.000958778	0.00182288	0	
-0.00107648	0.00184278	0	
-0.00120553	0.0018641	0	
-0.0013463	0.00188661	0	
0.00139831	0.0020347	0	
0.00125557	0.00201418	0	
0.00112428	0.00199478	0	
0.00100407	0.00197668	0	
0.000894483	0.00196006	0	
0.000794968	0.00194504	0	
0.000704924	0.0019317	0	
0.000623692	0.00192008	0	
0.000550592	0.00191017	0	
0.000484944	0.0019019	0	
0.000426081	0.00189518	0	
0.00037336	0.00188987	0	
0.000326171	0.00188583	0	
0.000283941	0.0018829	0	
0.000246134	0.00188091	0	