# vtk DataFile Version 4.1
vtk output
ASCII
DATASET UNSTRUCTURED_GRID

POINTS	30501	float
0	0	0	
0	1	0	
0	2	0	
0	3	0	
0	4	0	
0	5	0	
0	6	0	
0	7	0	
0	8	0	
0	9	0	
0	10	0	
0	11	0	
0	12	0	
0	13	0	
0	14	0	
0	15	0	
0	16	0	
0	17	0	
0	18	0	
0	19	0	
0	20	0	
0	21	0	
0	22	0	
0	23	0	
0	24	0	
0	25	0	
0	26	0	
0	27	0	
0	28	0	
0	29	0	
0	30	0	
0	31	0	
0	32	0	
0	33	0	
0	34	0	
0	35	0	
0	36	0	
0	37	0	
0	38	0	
0	39	0	
0	40	0	
0	41	0	
0	42	0	
0	43	0	
0	44	0	
0	45	0	
0	46	0	
0	47	0	
0	48	0	
0	49	0	
0	50	0	
1	0	0	
1	1	0	
1	2	0	
1	3	0	
1	4	0	
1	5	0	
1	6	0	
1	7	0	
1	8	0	
1	9	0	
1	10	0	
1	11	0	
1	12	0	
1	13	0	
1	14	0	
1	15	0	
1	16	0	
1	17	0	
1	18	0	
1	19	0	
1	20	0	
1	21	0	
1	22	0	
1	23	0	
1	24	0	
1	25	0	
1	26	0	
1	27	0	
1	28	0	
1	29	0	
1	30	0	
1	31	0	
1	32	0	
1	33	0	
1	34	0	
1	35	0	
1	36	0	
1	37	0	
1	38	0	
1	39	0	
1	40	0	
1	41	0	
1	42	0	
1	43	0	
1	44	0	
1	45	0	
1	46	0	
1	47	0	
1	48	0	
1	49	0	
1	50	0	
2	0	0	
2	1	0	
2	2	0	
2	3	0	
2	4	0	
2	5	0	
2	6	0	
2	7	0	
2	8	0	
2	9	0	
2	10	0	
2	11	0	
2	12	0	
2	13	0	
2	14	0	
2	15	0	
2	16	0	
2	17	0	
2	18	0	
2	19	0	
2	20	0	
2	21	0	
2	22	0	
2	23	0	
2	24	0	
2	25	0	
2	26	0	
2	27	0	
2	28	0	
2	29	0	
2	30	0	
2	31	0	
2	32	0	
2	33	0	
2	34	0	
2	35	0	
2	36	0	
2	37	0	
2	38	0	
2	39	0	
2	40	0	
2	41	0	
2	42	0	
2	43	0	
2	44	0	
2	45	0	
2	46	0	
2	47	0	
2	48	0	
2	49	0	
2	50	0	
3	0	0	
3	1	0	
3	2	0	
3	3	0	
3	4	0	
3	5	0	
3	6	0	
3	7	0	
3	8	0	
3	9	0	
3	10	0	
3	11	0	
3	12	0	
3	13	0	
3	14	0	
3	15	0	
3	16	0	
3	17	0	
3	18	0	
3	19	0	
3	20	0	
3	21	0	
3	22	0	
3	23	0	
3	24	0	
3	25	0	
3	26	0	
3	27	0	
3	28	0	
3	29	0	
3	30	0	
3	31	0	
3	32	0	
3	33	0	
3	34	0	
3	35	0	
3	36	0	
3	37	0	
3	38	0	
3	39	0	
3	40	0	
3	41	0	
3	42	0	
3	43	0	
3	44	0	
3	45	0	
3	46	0	
3	47	0	
3	48	0	
3	49	0	
3	50	0	
4	0	0	
4	1	0	
4	2	0	
4	3	0	
4	4	0	
4	5	0	
4	6	0	
4	7	0	
4	8	0	
4	9	0	
4	10	0	
4	11	0	
4	12	0	
4	13	0	
4	14	0	
4	15	0	
4	16	0	
4	17	0	
4	18	0	
4	19	0	
4	20	0	
4	21	0	
4	22	0	
4	23	0	
4	24	0	
4	25	0	
4	26	0	
4	27	0	
4	28	0	
4	29	0	
4	30	0	
4	31	0	
4	32	0	
4	33	0	
4	34	0	
4	35	0	
4	36	0	
4	37	0	
4	38	0	
4	39	0	
4	40	0	
4	41	0	
4	42	0	
4	43	0	
4	44	0	
4	45	0	
4	46	0	
4	47	0	
4	48	0	
4	49	0	
4	50	0	
5	0	0	
5	1	0	
5	2	0	
5	3	0	
5	4	0	
5	5	0	
5	6	0	
5	7	0	
5	8	0	
5	9	0	
5	10	0	
5	11	0	
5	12	0	
5	13	0	
5	14	0	
5	15	0	
5	16	0	
5	17	0	
5	18	0	
5	19	0	
5	20	0	
5	21	0	
5	22	0	
5	23	0	
5	24	0	
5	25	0	
5	26	0	
5	27	0	
5	28	0	
5	29	0	
5	30	0	
5	31	0	
5	32	0	
5	33	0	
5	34	0	
5	35	0	
5	36	0	
5	37	0	
5	38	0	
5	39	0	
5	40	0	
5	41	0	
5	42	0	
5	43	0	
5	44	0	
5	45	0	
5	46	0	
5	47	0	
5	48	0	
5	49	0	
5	50	0	
6	0	0	
6	1	0	
6	2	0	
6	3	0	
6	4	0	
6	5	0	
6	6	0	
6	7	0	
6	8	0	
6	9	0	
6	10	0	
6	11	0	
6	12	0	
6	13	0	
6	14	0	
6	15	0	
6	16	0	
6	17	0	
6	18	0	
6	19	0	
6	20	0	
6	21	0	
6	22	0	
6	23	0	
6	24	0	
6	25	0	
6	26	0	
6	27	0	
6	28	0	
6	29	0	
6	30	0	
6	31	0	
6	32	0	
6	33	0	
6	34	0	
6	35	0	
6	36	0	
6	37	0	
6	38	0	
6	39	0	
6	40	0	
6	41	0	
6	42	0	
6	43	0	
6	44	0	
6	45	0	
6	46	0	
6	47	0	
6	48	0	
6	49	0	
6	50	0	
7	0	0	
7	1	0	
7	2	0	
7	3	0	
7	4	0	
7	5	0	
7	6	0	
7	7	0	
7	8	0	
7	9	0	
7	10	0	
7	11	0	
7	12	0	
7	13	0	
7	14	0	
7	15	0	
7	16	0	
7	17	0	
7	18	0	
7	19	0	
7	20	0	
7	21	0	
7	22	0	
7	23	0	
7	24	0	
7	25	0	
7	26	0	
7	27	0	
7	28	0	
7	29	0	
7	30	0	
7	31	0	
7	32	0	
7	33	0	
7	34	0	
7	35	0	
7	36	0	
7	37	0	
7	38	0	
7	39	0	
7	40	0	
7	41	0	
7	42	0	
7	43	0	
7	44	0	
7	45	0	
7	46	0	
7	47	0	
7	48	0	
7	49	0	
7	50	0	
8	0	0	
8	1	0	
8	2	0	
8	3	0	
8	4	0	
8	5	0	
8	6	0	
8	7	0	
8	8	0	
8	9	0	
8	10	0	
8	11	0	
8	12	0	
8	13	0	
8	14	0	
8	15	0	
8	16	0	
8	17	0	
8	18	0	
8	19	0	
8	20	0	
8	21	0	
8	22	0	
8	23	0	
8	24	0	
8	25	0	
8	26	0	
8	27	0	
8	28	0	
8	29	0	
8	30	0	
8	31	0	
8	32	0	
8	33	0	
8	34	0	
8	35	0	
8	36	0	
8	37	0	
8	38	0	
8	39	0	
8	40	0	
8	41	0	
8	42	0	
8	43	0	
8	44	0	
8	45	0	
8	46	0	
8	47	0	
8	48	0	
8	49	0	
8	50	0	
9	0	0	
9	1	0	
9	2	0	
9	3	0	
9	4	0	
9	5	0	
9	6	0	
9	7	0	
9	8	0	
9	9	0	
9	10	0	
9	11	0	
9	12	0	
9	13	0	
9	14	0	
9	15	0	
9	16	0	
9	17	0	
9	18	0	
9	19	0	
9	20	0	
9	21	0	
9	22	0	
9	23	0	
9	24	0	
9	25	0	
9	26	0	
9	27	0	
9	28	0	
9	29	0	
9	30	0	
9	31	0	
9	32	0	
9	33	0	
9	34	0	
9	35	0	
9	36	0	
9	37	0	
9	38	0	
9	39	0	
9	40	0	
9	41	0	
9	42	0	
9	43	0	
9	44	0	
9	45	0	
9	46	0	
9	47	0	
9	48	0	
9	49	0	
9	50	0	
10	0	0	
10	1	0	
10	2	0	
10	3	0	
10	4	0	
10	5	0	
10	6	0	
10	7	0	
10	8	0	
10	9	0	
10	10	0	
10	11	0	
10	12	0	
10	13	0	
10	14	0	
10	15	0	
10	16	0	
10	17	0	
10	18	0	
10	19	0	
10	20	0	
10	21	0	
10	22	0	
10	23	0	
10	24	0	
10	25	0	
10	26	0	
10	27	0	
10	28	0	
10	29	0	
10	30	0	
10	31	0	
10	32	0	
10	33	0	
10	34	0	
10	35	0	
10	36	0	
10	37	0	
10	38	0	
10	39	0	
10	40	0	
10	41	0	
10	42	0	
10	43	0	
10	44	0	
10	45	0	
10	46	0	
10	47	0	
10	48	0	
10	49	0	
10	50	0	
11	0	0	
11	1	0	
11	2	0	
11	3	0	
11	4	0	
11	5	0	
11	6	0	
11	7	0	
11	8	0	
11	9	0	
11	10	0	
11	11	0	
11	12	0	
11	13	0	
11	14	0	
11	15	0	
11	16	0	
11	17	0	
11	18	0	
11	19	0	
11	20	0	
11	21	0	
11	22	0	
11	23	0	
11	24	0	
11	25	0	
11	26	0	
11	27	0	
11	28	0	
11	29	0	
11	30	0	
11	31	0	
11	32	0	
11	33	0	
11	34	0	
11	35	0	
11	36	0	
11	37	0	
11	38	0	
11	39	0	
11	40	0	
11	41	0	
11	42	0	
11	43	0	
11	44	0	
11	45	0	
11	46	0	
11	47	0	
11	48	0	
11	49	0	
11	50	0	
12	0	0	
12	1	0	
12	2	0	
12	3	0	
12	4	0	
12	5	0	
12	6	0	
12	7	0	
12	8	0	
12	9	0	
12	10	0	
12	11	0	
12	12	0	
12	13	0	
12	14	0	
12	15	0	
12	16	0	
12	17	0	
12	18	0	
12	19	0	
12	20	0	
12	21	0	
12	22	0	
12	23	0	
12	24	0	
12	25	0	
12	26	0	
12	27	0	
12	28	0	
12	29	0	
12	30	0	
12	31	0	
12	32	0	
12	33	0	
12	34	0	
12	35	0	
12	36	0	
12	37	0	
12	38	0	
12	39	0	
12	40	0	
12	41	0	
12	42	0	
12	43	0	
12	44	0	
12	45	0	
12	46	0	
12	47	0	
12	48	0	
12	49	0	
12	50	0	
13	0	0	
13	1	0	
13	2	0	
13	3	0	
13	4	0	
13	5	0	
13	6	0	
13	7	0	
13	8	0	
13	9	0	
13	10	0	
13	11	0	
13	12	0	
13	13	0	
13	14	0	
13	15	0	
13	16	0	
13	17	0	
13	18	0	
13	19	0	
13	20	0	
13	21	0	
13	22	0	
13	23	0	
13	24	0	
13	25	0	
13	26	0	
13	27	0	
13	28	0	
13	29	0	
13	30	0	
13	31	0	
13	32	0	
13	33	0	
13	34	0	
13	35	0	
13	36	0	
13	37	0	
13	38	0	
13	39	0	
13	40	0	
13	41	0	
13	42	0	
13	43	0	
13	44	0	
13	45	0	
13	46	0	
13	47	0	
13	48	0	
13	49	0	
13	50	0	
14	0	0	
14	1	0	
14	2	0	
14	3	0	
14	4	0	
14	5	0	
14	6	0	
14	7	0	
14	8	0	
14	9	0	
14	10	0	
14	11	0	
14	12	0	
14	13	0	
14	14	0	
14	15	0	
14	16	0	
14	17	0	
14	18	0	
14	19	0	
14	20	0	
14	21	0	
14	22	0	
14	23	0	
14	24	0	
14	25	0	
14	26	0	
14	27	0	
14	28	0	
14	29	0	
14	30	0	
14	31	0	
14	32	0	
14	33	0	
14	34	0	
14	35	0	
14	36	0	
14	37	0	
14	38	0	
14	39	0	
14	40	0	
14	41	0	
14	42	0	
14	43	0	
14	44	0	
14	45	0	
14	46	0	
14	47	0	
14	48	0	
14	49	0	
14	50	0	
15	0	0	
15	1	0	
15	2	0	
15	3	0	
15	4	0	
15	5	0	
15	6	0	
15	7	0	
15	8	0	
15	9	0	
15	10	0	
15	11	0	
15	12	0	
15	13	0	
15	14	0	
15	15	0	
15	16	0	
15	17	0	
15	18	0	
15	19	0	
15	20	0	
15	21	0	
15	22	0	
15	23	0	
15	24	0	
15	25	0	
15	26	0	
15	27	0	
15	28	0	
15	29	0	
15	30	0	
15	31	0	
15	32	0	
15	33	0	
15	34	0	
15	35	0	
15	36	0	
15	37	0	
15	38	0	
15	39	0	
15	40	0	
15	41	0	
15	42	0	
15	43	0	
15	44	0	
15	45	0	
15	46	0	
15	47	0	
15	48	0	
15	49	0	
15	50	0	
16	0	0	
16	1	0	
16	2	0	
16	3	0	
16	4	0	
16	5	0	
16	6	0	
16	7	0	
16	8	0	
16	9	0	
16	10	0	
16	11	0	
16	12	0	
16	13	0	
16	14	0	
16	15	0	
16	16	0	
16	17	0	
16	18	0	
16	19	0	
16	20	0	
16	21	0	
16	22	0	
16	23	0	
16	24	0	
16	25	0	
16	26	0	
16	27	0	
16	28	0	
16	29	0	
16	30	0	
16	31	0	
16	32	0	
16	33	0	
16	34	0	
16	35	0	
16	36	0	
16	37	0	
16	38	0	
16	39	0	
16	40	0	
16	41	0	
16	42	0	
16	43	0	
16	44	0	
16	45	0	
16	46	0	
16	47	0	
16	48	0	
16	49	0	
16	50	0	
17	0	0	
17	1	0	
17	2	0	
17	3	0	
17	4	0	
17	5	0	
17	6	0	
17	7	0	
17	8	0	
17	9	0	
17	10	0	
17	11	0	
17	12	0	
17	13	0	
17	14	0	
17	15	0	
17	16	0	
17	17	0	
17	18	0	
17	19	0	
17	20	0	
17	21	0	
17	22	0	
17	23	0	
17	24	0	
17	25	0	
17	26	0	
17	27	0	
17	28	0	
17	29	0	
17	30	0	
17	31	0	
17	32	0	
17	33	0	
17	34	0	
17	35	0	
17	36	0	
17	37	0	
17	38	0	
17	39	0	
17	40	0	
17	41	0	
17	42	0	
17	43	0	
17	44	0	
17	45	0	
17	46	0	
17	47	0	
17	48	0	
17	49	0	
17	50	0	
18	0	0	
18	1	0	
18	2	0	
18	3	0	
18	4	0	
18	5	0	
18	6	0	
18	7	0	
18	8	0	
18	9	0	
18	10	0	
18	11	0	
18	12	0	
18	13	0	
18	14	0	
18	15	0	
18	16	0	
18	17	0	
18	18	0	
18	19	0	
18	20	0	
18	21	0	
18	22	0	
18	23	0	
18	24	0	
18	25	0	
18	26	0	
18	27	0	
18	28	0	
18	29	0	
18	30	0	
18	31	0	
18	32	0	
18	33	0	
18	34	0	
18	35	0	
18	36	0	
18	37	0	
18	38	0	
18	39	0	
18	40	0	
18	41	0	
18	42	0	
18	43	0	
18	44	0	
18	45	0	
18	46	0	
18	47	0	
18	48	0	
18	49	0	
18	50	0	
19	0	0	
19	1	0	
19	2	0	
19	3	0	
19	4	0	
19	5	0	
19	6	0	
19	7	0	
19	8	0	
19	9	0	
19	10	0	
19	11	0	
19	12	0	
19	13	0	
19	14	0	
19	15	0	
19	16	0	
19	17	0	
19	18	0	
19	19	0	
19	20	0	
19	21	0	
19	22	0	
19	23	0	
19	24	0	
19	25	0	
19	26	0	
19	27	0	
19	28	0	
19	29	0	
19	30	0	
19	31	0	
19	32	0	
19	33	0	
19	34	0	
19	35	0	
19	36	0	
19	37	0	
19	38	0	
19	39	0	
19	40	0	
19	41	0	
19	42	0	
19	43	0	
19	44	0	
19	45	0	
19	46	0	
19	47	0	
19	48	0	
19	49	0	
19	50	0	
20	0	0	
20	1	0	
20	2	0	
20	3	0	
20	4	0	
20	5	0	
20	6	0	
20	7	0	
20	8	0	
20	9	0	
20	10	0	
20	11	0	
20	12	0	
20	13	0	
20	14	0	
20	15	0	
20	16	0	
20	17	0	
20	18	0	
20	19	0	
20	20	0	
20	21	0	
20	22	0	
20	23	0	
20	24	0	
20	25	0	
20	26	0	
20	27	0	
20	28	0	
20	29	0	
20	30	0	
20	31	0	
20	32	0	
20	33	0	
20	34	0	
20	35	0	
20	36	0	
20	37	0	
20	38	0	
20	39	0	
20	40	0	
20	41	0	
20	42	0	
20	43	0	
20	44	0	
20	45	0	
20	46	0	
20	47	0	
20	48	0	
20	49	0	
20	50	0	
21	0	0	
21	1	0	
21	2	0	
21	3	0	
21	4	0	
21	5	0	
21	6	0	
21	7	0	
21	8	0	
21	9	0	
21	10	0	
21	11	0	
21	12	0	
21	13	0	
21	14	0	
21	15	0	
21	16	0	
21	17	0	
21	18	0	
21	19	0	
21	20	0	
21	21	0	
21	22	0	
21	23	0	
21	24	0	
21	25	0	
21	26	0	
21	27	0	
21	28	0	
21	29	0	
21	30	0	
21	31	0	
21	32	0	
21	33	0	
21	34	0	
21	35	0	
21	36	0	
21	37	0	
21	38	0	
21	39	0	
21	40	0	
21	41	0	
21	42	0	
21	43	0	
21	44	0	
21	45	0	
21	46	0	
21	47	0	
21	48	0	
21	49	0	
21	50	0	
22	0	0	
22	1	0	
22	2	0	
22	3	0	
22	4	0	
22	5	0	
22	6	0	
22	7	0	
22	8	0	
22	9	0	
22	10	0	
22	11	0	
22	12	0	
22	13	0	
22	14	0	
22	15	0	
22	16	0	
22	17	0	
22	18	0	
22	19	0	
22	20	0	
22	21	0	
22	22	0	
22	23	0	
22	24	0	
22	25	0	
22	26	0	
22	27	0	
22	28	0	
22	29	0	
22	30	0	
22	31	0	
22	32	0	
22	33	0	
22	34	0	
22	35	0	
22	36	0	
22	37	0	
22	38	0	
22	39	0	
22	40	0	
22	41	0	
22	42	0	
22	43	0	
22	44	0	
22	45	0	
22	46	0	
22	47	0	
22	48	0	
22	49	0	
22	50	0	
23	0	0	
23	1	0	
23	2	0	
23	3	0	
23	4	0	
23	5	0	
23	6	0	
23	7	0	
23	8	0	
23	9	0	
23	10	0	
[...]
POINT_DATA	30501
VECTORS d float
2.92899e-014	1.61344e-014	0	
1.0203e-014	4.48954e-015	0	
7.55601e-015	2.63061e-015	0	
6.22326e-015	2.51008e-015	0	
5.17154e-015	2.50521e-015	0	
4.38019e-015	2.53063e-015	0	
3.73876e-015	2.57812e-015	0	
3.20932e-015	2.63778e-015	0	
2.76212e-015	2.70522e-015	0	
2.38083e-015	2.77612e-015	0	
2.05278e-015	2.84825e-015	0	
1.76851e-015	2.91986e-015	0	
1.52179e-015	2.98963e-015	0	
1.30588e-015	3.05655e-015	0	
1.11682e-015	3.11993e-015	0	
9.51312e-016	3.17895e-015	0	
8.05057e-016	3.23366e-015	0	
6.76257e-016	3.28327e-015	0	
5.61567e-016	3.32752e-015	0	
4.60208e-016	3.36655e-015	0	
3.67539e-016	3.3994e-015	0	
2.84273e-016	3.4269e-015	0	
2.0792e-016	3.44818e-015	0	
1.35313e-016	3.46343e-015	0	
6.67353e-017	3.47265e-015	0	
-1.42799e-018	3.47559e-015	0	
-6.81706e-017	3.47268e-015	0	
-1.37226e-016	3.46331e-015	0	
-2.09514e-016	3.44808e-015	0	
-2.86293e-016	3.42686e-015	0	
-3.69766e-016	3.39958e-015	0	
-4.61361e-016	3.36644e-015	0	
-5.64068e-016	3.32769e-015	0	
-6.77531e-016	3.28329e-015	0	
-8.07086e-016	3.23366e-015	0	
-9.53401e-016	3.17913e-015	0	
-1.1187e-015	3.11989e-015	0	
-1.30795e-015	3.05664e-015	0	
-1.52348e-015	2.9898e-015	0	
-1.77065e-015	2.92017e-015	0	
-2.05471e-015	2.8485e-015	0	
-2.38277e-015	2.7764e-015	0	
-2.76433e-015	2.70536e-015	0	
-3.21123e-015	2.63827e-015	0	
-3.7413e-015	2.57846e-015	0	
-4.38265e-015	2.53097e-015	0	
-5.17326e-015	2.50581e-015	0	
-6.22601e-015	2.51078e-015	0	
-7.5583e-015	2.63156e-015	0	
-1.02066e-014	4.49095e-015	0	
-2.92984e-014	1.61393e-014	0	
0.000918967	0.000841038	0	
0.000517303	0.000615392	0	
0.000360367	0.000500076	0	
0.000284632	0.00045858	0	
0.000233252	0.000440079	0	
0.000195183	0.000433889	0	
0.000165088	0.000434229	0	
0.000140559	0.000438418	0	
0.000120107	0.000444926	0	
0.00010282	0.000452784	0	
8.80632e-005	0.000461404	0	
7.53721e-005	0.000470366	0	
6.4422e-005	0.000479373	0	
5.49332e-005	0.000488222	0	
4.66767e-005	0.000496734	0	
3.94873e-005	0.000504778	0	
3.32081e-005	0.000512273	0	
2.77117e-005	0.00051914	0	
2.28868e-005	0.000525312	0	
1.8621e-005	0.000530754	0	
1.48189e-005	0.000535406	0	
1.14125e-005	0.000539251	0	
8.29806e-006	0.000542271	0	
5.39569e-006	0.000544431	0	
2.6393e-006	0.00054574	0	
-4.91211e-008	0.000546169	0	
-2.72116e-006	0.000545727	0	
-5.47338e-006	0.000544428	0	
-8.37166e-006	0.000542273	0	
-1.14918e-005	0.000539275	0	
-1.49134e-005	0.000535424	0	
-1.87015e-005	0.000530775	0	
-2.29668e-005	0.000525344	0	
-2.77959e-005	0.000519159	0	
-3.32916e-005	0.000512295	0	
-3.9574e-005	0.000504786	0	
-4.67626e-005	0.000496741	0	
-5.50182e-005	0.000488248	0	
-6.45093e-005	0.000479417	0	
-7.5469e-005	0.000470411	0	
-8.81555e-005	0.000461438	0	
-0.000102909	0.00045283	0	
-0.000120203	0.000444975	0	
-0.00014066	0.000438488	0	
-0.000165199	0.000434313	0	
-0.00019529	0.000433967	0	
-0.000233355	0.000440181	0	
-0.000284741	0.000458695	0	
-0.000360485	0.000500209	0	
-0.000517479	0.000615569	0	
-0.000919218	0.00084128	0	
0.00150506	0.00146515	0	
0.00102558	0.00124894	0	
0.000753386	0.00109562	0	
0.000588046	0.00100663	0	
0.000476014	0.000958145	0	
0.000393892	0.000934603	0	
0.000330058	0.00092592	0	
0.000278662	0.000926552	0	
0.000236294	0.000933097	0	
0.000200817	0.000943403	0	
0.000170774	0.000956046	0	
0.000145142	0.00097004	0	
0.000123176	0.000984674	0	
0.000104279	0.000999425	0	
8.79786e-005	0.0010139	0	
7.3893e-005	0.00102781	0	
6.16934e-005	0.00104089	0	
5.11178e-005	0.00105298	0	
4.19261e-005	0.00106393	0	
3.38893e-005	0.00107361	0	
2.68148e-005	0.00108195	0	
2.05284e-005	0.00108886	0	
1.48573e-005	0.00109428	0	
9.62789e-006	0.00109819	0	
4.69501e-006	0.00110055	0	
-8.60617e-008	0.00110133	0	
-4.86018e-006	0.00110054	0	
-9.7876e-006	0.00109819	0	
-1.50247e-005	0.0010943	0	
-2.07034e-005	0.00108888	0	
-2.69947e-005	0.00108198	0	
-3.4062e-005	0.00107365	0	
-4.20835e-005	0.00106397	0	
-5.12817e-005	0.00105303	0	
-6.18569e-005	0.00104093	0	
-7.40561e-005	0.00102784	0	
-8.81567e-005	0.00101395	0	
-0.000104464	0.000999479	0	
-0.000123362	0.000984736	0	
-0.000145327	0.000970111	0	
-0.000170954	0.000956131	0	
-0.000201006	0.000943497	0	
-0.000236497	0.000933208	0	
-0.000278877	0.00092669	0	
-0.000330269	0.000926085	0	
-0.000394107	0.000934786	0	
-0.000476226	0.000958335	0	
-0.000588264	0.00100684	0	
-0.000753644	0.00109587	0	
-0.00102593	0.00124926	0	
-0.00150551	0.00146554	0	
0.00199182	0.00205491	0	
0.00149286	0.00186519	0	
0.00114157	0.00170797	0	
0.000899195	0.00159668	0	
0.000726617	0.00152605	0	
0.000597656	0.00148489	0	
0.000497336	0.00146409	0	
0.000416915	0.00145719	0	
0.000351044	0.00145974	0	
0.000296259	0.00146868	0	
0.000250175	0.00148187	0	
0.000211124	0.00149776	0	
0.000177881	0.0015152	0	
0.000149478	0.00153337	0	
0.000125159	0.00155161	0	
0.000104308	0.00156942	0	
8.64201e-005	0.0015864	0	
7.10546e-005	0.00160223	0	
5.78304e-005	0.00161668	0	
4.6398e-005	0.00162954	0	
3.64605e-005	0.00164067	0	
2.77467e-005	0.00164991	0	
1.99769e-005	0.0016572	0	
1.28908e-005	0.00166244	0	
6.26503e-006	0.00166561	0	
-1.2382e-007	0.00166667	0	
-6.51416e-006	0.00166561	0	
-1.3143e-005	0.00166245	0	
-2.02316e-005	0.00165721	0	
-2.80124e-005	0.00164994	0	
-3.67348e-005	0.0016407	0	
-4.66598e-005	0.0016296	0	
-5.80775e-005	0.00161674	0	
-7.12966e-005	0.0016023	0	
-8.66614e-005	0.00158647	0	
-0.00010456	0.0015695	0	
-0.000125428	0.0015517	0	
-0.000149756	0.00153346	0	
-0.000178157	0.0015153	0	
-0.000211406	0.00149786	0	
-0.000250456	0.00148199	0	
-0.000296547	0.00146883	0	
-0.000351362	0.00145991	0	
-0.000417247	0.00145739	0	
-0.000497661	0.00146432	0	
-0.000597978	0.00148516	0	
-0.000726953	0.00152635	0	
-0.000899553	0.001597	0	
-0.00114198	0.00170835	0	
-0.00149336	0.00186563	0	
-0.00199242	0.00205541	0	
0.00241674	0.0026326	0	
0.0018998	0.00246629	0	
0.00150191	0.00231957	0	
0.00120286	0.00220451	0	
0.00097705	0.00212248	0	
0.000803141	0.00206878	0	
0.000666054	0.0020372	0	
0.000555676	0.00202208	0	
0.000465292	0.00201894	0	
0.000390315	0.00202438	0	
0.000327512	0.00203585	0	
0.000274556	0.0020514	0	
0.000229703	0.00206955	0	
0.000191613	0.00208916	0	
0.000159218	0.00210936	0	
0.000131644	0.00212944	0	
0.000108177	0.00214887	0	
8.82098e-005	0.00216718	0	
7.1198e-005	0.00218402	0	
5.66645e-005	0.0021991	0	
4.4193e-005	0.00221221	0	
3.33964e-005	0.00222315	0	
2.39015e-005	0.00223179	0	
1.53599e-005	0.00223803	0	
7.43666e-006	0.0022418	0	
-1.70268e-007	0.00224306	0	
-7.77549e-006	0.00224181	0	
-1.56912e-005	0.00223804	0	
-2.42398e-005	0.00223181	0	
-3.37565e-005	0.00222318	0	
-4.45614e-005	0.00221226	0	
-5.70203e-005	0.00219916	0	
-7.1535e-005	0.00218409	0	
-8.85329e-005	0.00216726	0	
-0.000108509	0.00214897	0	
-0.000131995	0.00212957	0	
-0.000159581	0.00210949	0	
-0.000191977	0.0020893	0	
-0.00023007	0.00206969	0	
-0.000274933	0.00205155	0	
-0.000327897	0.00203603	0	
-0.000390712	0.00202459	0	
-0.000465715	0.00201917	0	
-0.000556117	0.00202234	0	
-0.000666495	0.00203751	0	
-0.000803587	0.00206915	0	
-0.000977511	0.00212289	0	
-0.00120334	0.00220496	0	
-0.00150246	0.00232007	0	
-0.00190044	0.00246686	0	
-0.0024175	0.00263324	0	
0.0027899	0.00321276	0	
0.00225993	0.0030653	0	
0.00183012	0.00293151	0	
0.00148879	0.00282033	0	
0.00121927	0.00273513	0	
0.00100525	0.00267472	0	
0.000833374	0.00263554	0	
0.000693607	0.00261348	0	
0.000578635	0.00260469	0	
0.000483137	0.00260592	0	
0.000403234	0.00261452	0	
0.000336047	0.00262837	0	
0.000279348	0.00264578	0	
0.00023141	0.00266542	0	
0.000190851	0.00268622	0	
0.000156555	0.00270731	0	
0.000127588	0.00272799	0	
0.00010314	0.00274771	0	
8.25132e-005	0.002766	0	
6.51069e-005	0.0027825	0	
5.03612e-005	0.0027969	0	
3.77585e-005	0.00280897	0	
2.68363e-005	0.00281854	0	
1.71512e-005	0.00282548	0	
8.26338e-006	0.00282968	0	
-2.12591e-007	0.0028311	0	
-8.68885e-006	0.0028297	0	
-1.758e-005	0.0028255	0	
-2.72724e-005	0.00281858	0	
-3.82021e-005	0.00280903	0	
-5.08079e-005	0.00279696	0	
-6.55522e-005	0.00278257	0	
-8.2951e-005	0.00276609	0	
-0.000103561	0.00274782	0	
-0.000128011	0.00272813	0	
-0.000157002	0.00270746	0	
-0.000191308	0.00268639	0	
-0.000231863	0.00266561	0	
-0.000279806	0.00264598	0	
-0.000336523	0.00262859	0	
-0.000403738	0.00261476	0	
-0.00048365	0.00260619	0	
-0.00057916	0.00260501	0	
-0.000694159	0.00261384	0	
-0.000833941	0.00263595	0	
-0.00100582	0.00267517	0	
-0.00121987	0.00273564	0	
-0.00148943	0.00282089	0	
-0.00183082	0.00293214	0	
-0.0022607	0.00306598	0	
-0.00279076	0.00321348	0	
0.00312074	0.00379668	0	
0.00257939	0.00366576	0	
0.00212595	0.0035451	0	
0.00175258	0.0034413	0	
0.00144781	0.0033579	0	
0.00119932	0.00329536	0	
0.000995976	0.00325198	0	
0.000828567	0.00322507	0	
0.000689809	0.00321165	0	
0.000574099	0.00320889	0	
0.000477167	0.00321433	0	
0.000395692	0.00322586	0	
0.000327057	0.00324172	0	
0.000269208	0.00326047	0	
0.00022047	0.00328091	0	
0.000179467	0.00330206	0	
0.000145052	0.00332312	0	
0.000116233	0.00334341	0	
9.21394e-005	0.0033624	0	
7.20337e-005	0.00337965	0	
5.52247e-005	0.00339479	0	
4.10509e-005	0.00340754	0	
2.89453e-005	0.00341769	0	
1.83709e-005	0.00342505	0	
8.80248e-006	0.00342953	0	
-2.6153e-007	0.00343103	0	
-9.32769e-006	0.00342954	0	
-1.88963e-005	0.00342509	0	
-2.94698e-005	0.00341773	0	
-4.15749e-005	0.00340761	0	
-5.57521e-005	0.00339487	0	
-7.25759e-005	0.00337975	0	
-9.26826e-005	0.00336252	0	
-0.000116758	0.00334355	0	
-0.000145571	0.00332328	0	
-0.000180008	0.00330225	0	
-0.000221023	0.00328112	0	
-0.000269759	0.0032607	0	
-0.000327617	0.00324197	0	
-0.00039627	0.00322614	0	
-0.000477787	0.00321465	0	
-0.00057474	0.00320925	0	
-0.000690445	0.00321205	0	
-0.000829221	0.00322552	0	
-0.000996663	0.00325248	0	
-0.00120003	0.00329591	0	
-0.00144854	0.00335851	0	
-0.00175336	0.00344197	0	
-0.00212678	0.00354583	0	
-0.00258028	0.00366655	0	
-0.0031217	0.00379753	0	
0.00341419	0.00438583	0	
0.00286305	0.00426966	0	
0.00239115	0.00416159	0	
0.00199274	0.00406658	0	
0.00165946	0.00398779	0	
0.00138188	0.00392632	0	
0.00115084	0.0038816	0	
0.000958215	0.00385199	0	
0.000797167	0.00383536	0	
0.000662124	0.00382942	0	
0.000548643	0.00383199	0	
0.000453142	0.00384112	0	
0.000372725	0.0038551	0	
0.000305049	0.00387247	0	
0.000248196	0.00389197	0	
0.000200566	0.00391256	0	
0.000160803	0.00393336	0	
0.000127728	0.00395362	0	
0.00010031	0.00397275	0	
7.76601e-005	0.00399024	0	
5.89499e-005	0.00400568	0	
4.3406e-005	0.00401874	0	
3.03475e-005	0.00402916	0	
1.91205e-005	0.00403675	0	
9.10227e-006	0.00404136	0	
-3.14042e-007	0.00404291	0	
-9.7246e-006	0.00404137	0	
-1.97363e-005	0.00403679	0	
-3.09686e-005	0.00402922	0	
-4.40295e-005	0.00401883	0	
-5.95767e-005	0.0040058	0	
-7.82953e-005	0.00399038	0	
-0.000100941	0.0039729	0	
-0.000128348	0.00395379	0	
-0.000161427	0.00393354	0	
-0.000201203	0.00391277	0	
-0.000248844	0.00389221	0	
-0.000305705	0.00387273	0	
-0.000373395	0.00385541	0	
-0.000453838	0.00384147	0	
-0.000549381	0.00383237	0	
-0.000662884	0.00382984	0	
-0.000797926	0.00383583	0	
-0.000958993	0.00385252	0	
-0.00115165	0.00388217	0	
-0.00138272	0.00392696	0	
-0.00166033	0.00398849	0	
-0.00199366	0.00406735	0	
-0.00239212	0.00416241	0	
-0.00286408	0.00427052	0	
-0.00341528	0.00438674	0	
0.00367405	0.0049803	0	
0.00311433	0.00487763	0	
0.00262753	0.00478154	0	
0.00220909	0.00469584	0	
0.00185258	0.0046232	0	
0.00155059	0.00456492	0	
0.00129556	0.00452106	0	
0.00108045	0.00449069	0	
0.000899018	0.00447233	0	
0.00074593	0.00446422	0	
0.000616753	0.00446454	0	
0.000507779	0.00447157	0	
0.000415947	0.00448371	0	
0.000338712	0.00449955	0	
0.000273947	0.00451784	0	
0.000219848	0.00453752	0	
0.000174882	0.00455766	0	
0.000137703	0.0045775	0	
0.000107119	0.00459638	0	
8.20839e-005	0.00461375	0	
6.16458e-005	0.00462915	0	
4.49295e-005	0.00464224	0	
3.11172e-005	0.00465271	0	
1.94441e-005	0.00466036	0	
9.19121e-006	0.00466501	0	
-3.62196e-007	0.00466657	0	
-9.9144e-006	0.00466502	0	
-2.01635e-005	0.0046604	0	
-3.18347e-005	0.0046528	0	
-4.56565e-005	0.00464236	0	
-6.23821e-005	0.00462929	0	
-8.28083e-005	0.0046139	0	
-0.00010783	0.00459655	0	
-0.000138419	0.00457769	0	
-0.000175614	0.00455788	0	
-0.000220579	0.00453775	0	
-0.000274686	0.00451811	0	
-0.00033948	0.00449986	0	
-0.000416737	0.00448406	0	
-0.000508591	0.00447196	0	
-0.000617595	0.00446497	0	
-0.000746804	0.0044647	0	
-0.000899906	0.00447286	0	
-0.00108136	0.00449128	0	
-0.00129651	0.00452171	0	
-0.00155156	0.00456564	0	
-0.00185359	0.00462397	0	
-0.00221014	0.00469667	0	
-0.00262862	0.00478242	0	
-0.00311547	0.00487854	0	
-0.00367525	0.00498124	0	
0.0039029	0.00557987	0	
0.00333577	0.00548975	0	
0.00283672	0.00540508	0	
0.00240199	0.00532881	0	
0.00202641	0.00526319	0	
0.00170397	0.0052095	0	
0.00142837	0.00516809	0	
0.00119352	0.00513852	0	
0.000993786	0.0051198	0	
0.000824206	0.00511061	0	
0.000680455	0.00510947	0	
0.000558817	0.0051149	0	
0.00045615	0.00512549	0	
0.000369789	0.0051399	0	
0.000297443	0.00515694	0	
0.000237141	0.00517558	0	
0.00018719	0.00519488	0	
0.000146107	0.00521407	0	
0.000112553	0.00523246	0	
8.5327e-005	0.00524947	0	
6.33556e-005	0.00526463	0	
4.5656e-005	0.00527754	0	
3.12752e-005	0.0052879	0	
1.93592e-005	0.00529548	0	
9.07855e-006	0.00530011	0	
-4.10527e-007	0.00530167	0	
-9.90792e-006	0.00530013	0	
-2.01934e-005	0.00529556	0	
-3.20989e-005	0.00528802	0	
-4.64821e-005	0.00527768	0	
-6.41846e-005	0.00526478	0	
-8.61338e-005	0.00524964	0	
-0.000113351	0.00523264	0	
-0.000146924	0.00521429	0	
-0.000188031	0.00519513	0	
-0.000237975	0.00517585	0	
-0.000298278	0.00515725	0	
-0.000370657	0.00514023	0	
-0.000457054	0.00512586	0	
-0.000559747	0.00511532	0	
-0.000681408	0.00510994	0	
-0.0008252	0.00511113	0	
-0.000994809	0.00512039	0	
-0.00119456	0.00513918	0	
-0.00142944	0.00516881	0	
-0.00170507	0.00521028	0	
-0.00202754	0.00526403	0	
-0.00240316	0.00532972	0	
-0.00283792	0.00540604	0	
-0.00333702	0.00549078	0	
-0.00390423	0.00558094	0	
0.00410287	0.0061842	0	
0.00352931	0.00610589	0	
0.00302009	0.00603212	0	
0.00257198	0.00596524	0	
0.00218066	0.00590711	0	
0.00184111	0.0058589	0	
0.001548	0.0058211	0	
0.00129601	0.00579357	0	
0.00108013	0.00577566	0	
0.000895736	0.00576638	0	
0.000738692	0.00576461	0	
0.000605385	0.00576908	0	
0.000492654	0.00577854	0	
0.000397752	0.00579179	0	
0.000318274	0.00580775	0	
0.000252142	0.00582539	0	
0.00019753	0.00584383	0	
0.000152805	0.00586228	0	
0.000116509	0.00588006	0	
8.73161e-005	0.00589659	0	
6.40365e-005	0.00591137	0	
4.55593e-005	0.005924	0	
3.0826e-005	0.00593416	0	
1.88652e-005	0.00594159	0	
8.74399e-006	0.00594613	0	
-4.63663e-007	0.00594768	0	
-9.68271e-006	0.00594619	0	
-1.98154e-005	0.00594168	0	
-3.17604e-005	0.00593427	0	
-4.6478e-005	0.00592414	0	
-6.49518e-005	0.00591154	0	
-8.82218e-005	0.00589678	0	
-0.000117401	0.00588027	0	
-0.000153717	0.00586252	0	
-0.000198466	0.00584409	0	
-0.000253081	0.00582568	0	
-0.000319216	0.00580808	0	
-0.000398716	0.00579216	0	
-0.000493667	0.00577895	0	
-0.000606444	0.00576954	0	
-0.000739775	0.00576514	0	
-0.000896838	0.00576696	0	
-0.00108127	0.00577628	0	
-0.00129719	0.00579426	0	
-0.0015492	0.00582185	0	
-0.00184234	0.00585971	0	
-0.00218191	0.00590798	0	
-0.00257328	0.00596619	0	
-0.00302142	0.00603313	0	
-0.00353066	0.00610697	0	
-0.00410424	0.00618531	0	
0.00427549	0.00679277	0	
0.00369644	0.0067257	0	
0.0031788	0.0066624	0	
0.00271966	0.00660478	0	
0.00231532	0.00655438	0	
0.00196149	0.00651224	0	
0.00165357	0.00647888	0	
0.00138687	0.00645433	0	
0.0011569	0.00643821	0	
0.000959412	0.00642979	0	
0.000790494	0.00642817	0	
0.000646638	0.00643232	0	
0.00052472	0.00644117	0	
0.000421989	0.00645366	0	
0.000335971	0.00646879	0	
0.000264476	0.0064856	0	
0.000205584	0.00650327	0	
0.000157563	0.00652103	0	
0.000118825	0.0065382	0	
8.79329e-005	0.0065542	0	
6.35906e-005	0.00656855	0	
4.45707e-005	0.00658085	0	
2.97124e-005	0.00659076	0	
1.79328e-005	0.00659802	0	
8.19778e-006	0.00660245	0	
-5.21191e-007	0.00660396	0	
-9.25104e-006	0.0066025	0	
-1.89885e-005	0.00659809	0	
-3.07513e-005	0.00659087	0	
-4.55953e-005	0.00658101	0	
-6.46065e-005	0.00656873	0	
-8.89377e-005	0.0065544	0	
-0.000119816	0.00653842	0	
-0.000158564	0.00652128	0	
-0.000206608	0.00650356	0	
-0.000265519	0.00648592	0	
-0.000337019	0.00646914	0	
-0.000423064	0.00645407	0	
-0.000525854	0.00644163	0	
-0.000647814	0.00643283	0	
-0.000791693	0.00642873	0	
-0.000960635	0.0064304	0	
-0.00115817	0.00643887	0	
-0.00138817	0.00645505	0	
-0.00165489	0.00647965	0	
-0.00196284	0.00651306	0	
-0.0023167	0.00655527	0	
-0.00272108	0.00660574	0	
-0.00318024	0.00666343	0	
-0.00369789	0.00672677	0	
-0.00427695	0.00679389	0	
0.00442198	0.00740502	0	
0.00383836	0.0073487	0	
0.00331378	0.00729552	0	
0.00284558	0.00724701	0	
0.00243051	0.00720446	0	
0.00206483	0.00716878	0	
0.00174446	0.00714046	0	
0.00146526	0.00711965	0	
0.00122319	0.00710612	0	
0.00101431	0.00709935	0	
0.000834952	0.00709862	0	
0.000681744	0.00710309	0	
0.000551645	0.00711188	0	
0.00044189	0.00712404	0	
0.000349988	0.00713867	0	
0.000273698	0.00715492	0	
0.000211005	0.007172	0	
0.000160088	0.00718918	0	
0.00011927	0.00720581	0	
8.70078e-005	0.00722134	0	
6.18825e-005	0.0072353	0	
4.25794e-005	0.00724726	0	
2.78576e-005	0.00725691	0	
1.65215e-005	0.00726399	0	
7.41811e-006	0.00726831	0	
-5.77005e-007	0.00726977	0	
-8.57167e-006	0.00726835	0	
-1.76816e-005	0.00726406	0	
-2.90254e-005	0.00725702	0	
-4.37222e-005	0.00724741	0	
-6.29927e-005	0.00723548	0	
-8.8103e-005	0.00722156	0	
-0.000120366	0.00720605	0	
-0.000161189	0.00718945	0	
-0.000212123	0.0071723	0	
-0.000274841	0.00715527	0	
-0.000351151	0.00713907	0	
-0.000443082	0.00712449	0	
-0.000552884	0.00711237	0	
-0.000683029	0.00710364	0	
-0.000836268	0.00709921	0	
-0.00101566	0.00709999	0	
-0.00122457	0.00710681	0	
-0.00146668	0.0071204	0	
-0.0017459	0.00714126	0	
-0.0020663	0.00716963	0	
-0.00243204	0.00720538	0	
-0.00284712	0.007248	0	
-0.00331532	0.00729656	0	
-0.00383991	0.00734979	0	
-0.00442354	0.00740616	0	
0.00454343	0.00802032	0	
0.00395605	0.00797438	0	
0.00342583	0.00793101	0	
0.00295026	0.00789148	0	
0.00252642	0.00785684	0	
0.00215097	0.00782787	0	
0.00182027	0.00780505	0	
0.0015306	0.00778855	0	
0.00127826	0.00777825	0	
0.00105964	0.00777379	0	
0.000871277	0.00777462	0	
0.000709953	0.00778004	0	
0.000572716	0.0077893	0	
0.000456828	0.00780158	0	
0.000359799	0.00781611	0	
0.000279348	0.00783211	0	
0.000213392	0.00784883	0	
0.000160056	0.00786561	0	
0.000117573	0.00788186	0	
8.42991e-005	0.00789703	0	
5.87368e-005	0.00791064	0	
3.94802e-005	0.00792232	0	
2.51894e-005	0.00793174	0	
1.45705e-005	0.00793864	0	
6.36608e-006	0.00794286	0	
-6.35955e-007	0.00794429	0	
-7.62193e-006	0.0079429	0	
-1.58307e-005	0.00793871	0	
-2.64675e-005	0.00793184	0	
-4.07363e-005	0.00792247	0	
-5.99598e-005	0.00791083	0	
-8.55e-005	0.00789725	0	
-0.000118767	0.00788211	0	
-0.00016126	0.00786589	0	
-0.000214617	0.00784916	0	
-0.000280591	0.00783249	0	
-0.000361071	0.00781654	0	
-0.000458137	0.00780207	0	
-0.000574064	0.00778983	0	
-0.000711345	0.00778062	0	
-0.000872703	0.00777525	0	
-0.0010611	0.00777448	0	
-0.00127976	0.00777898	0	
-0.00153213	0.00778933	0	
-0.00182182	0.00780588	0	
-0.00215256	0.00782875	0	
-0.00252806	0.00785777	0	
-0.00295191	0.00789247	0	
-0.00342747	0.00793204	0	
-0.0039577	0.00797544	0	
-0.00454505	0.00802142	0	
0.00464055	0.00863801	0	
0.00405028	0.00860216	0	
0.00351559	0.00856838	0	
0.00303413	0.0085377	0	
0.00260323	0.00851098	0	
0.00221985	0.00848891	0	
0.0018807	0.00847192	0	
0.00158239	0.00846018	0	
0.00132152	0.00845366	0	
0.00109473	0.00845208	0	
0.000898769	0.00845504	0	
0.000730584	0.00846196	0	
0.000587293	0.0084722	0	
0.000466213	0.00848508	0	
0.00036486	0.00849991	0	
0.000280946	0.00851597	0	
0.000212347	0.00853262	0	
0.00015712	0.00854924	0	
0.000113435	0.00856527	0	
7.95796e-005	0.0085802	0	
5.39706e-005	0.00859359	0	
3.51183e-005	0.00860506	0	
2.15904e-005	0.00861431	0	
1.20054e-005	0.00862108	0	
5.01417e-006	0.00862523	0	
-6.857e-007	0.00862663	0	
-6.3753e-006	0.00862527	0	
-1.33682e-005	0.00862116	0	
-2.2967e-005	0.00861442	0	
-3.64888e-005	0.00860521	0	
-5.53055e-005	0.00859378	0	
-8.0883e-005	0.00858043	0	
-0.000114735	0.00856553	0	
-0.000158434	0.00854954	0	
-0.000213679	0.00853297	0	