# vtk DataFile Version 4.1
vtk output
ASCII
DATASET UNSTRUCTURED_GRID

POINTS	15	float
0	0	0	
0	1000	0	
0	2000	0	
1000	0	0	
1000	1000	0	
1000	2000	0	
2000	0	0	
2000	1000	0	
2000	2000	0	
3000	0	0	
3000	1000	0	
3000	2000	0	
4000	0	0	
4000	1000	0	
4000	2000	0	

CELLS 38	114
2	1	0	
2	2	1	
2	3	0	
2	3	1	
2	4	0	
2	4	1	
2	4	2	
2	4	3	
2	5	1	
2	5	2	
2	5	4	
2	6	3	
2	6	4	
2	7	3	
2	7	4	
2	7	5	
2	7	6	
2	8	4	
2	8	5	
2	8	7	
2	9	6	
2	9	7	
2	10	6	
2	10	7	
2	10	8	
2	10	9	
2	11	7	
2	11	8	
2	11	10	
2	12	9	
2	12	10	
2	13	9	
2	13	10	
2	13	11	
2	13	12	
2	14	10	
2	14	11	
2	14	13	

CELL_TYPES	38
3
3
3
3
3
3
3
3
3
3
3
3
3
3
3
3
3
3
3
3
3
3
3
3
3
3
3
3
3
3
3
3
3
3
3
3
3
3

POINT_DATA	15
VECTORS u float
0	0	0	
-1.02838e-013	-0.0155145	0	
0	0	0	
-0.238107	-0.297503	0	
-5.34987e-013	-0.224445	0	
0.238107	-0.297503	0	
-0.414157	-0.784581	0	
-1.40445e-012	-0.7111	0	
0.414157	-0.784581	0	
-0.549311	-1.4182	0	
1.20575e-012	-1.34498	0	
0.549311	-1.4182	0	
-0.621674	-2.11138	0	
-9.16992e-013	-2.18374	0	
0.621674	-2.11138	0	
VECTORS r float
10000	2500	0	
-7.57006e-013	-1.11022e-015	0	
-10000	2500	0	
1.07714e-007	4.54377e-008	0	
-4.64081e-009	-4.77485e-012	0	
1.07716e-007	-4.54334e-008	0	
-1.47409e-007	-3.04983e-008	0	
-1.16216e-007	0	0	
-1.47416e-007	3.04999e-008	0	
1.22503e-007	-6.46014e-009	0	
5.84787e-008	-6.70752e-012	0	
1.22508e-007	6.45832e-009	0	
-8.40248e-009	6.29927e-009	0	
-4.42442e-008	-5000	0	
-8.40316e-009	-6.30166e-009	0	

CELL_DATA	38
SCALARS s float
LOOKUP_TABLE default
0.000751151
0.000751151
1
0.000751151
1
0.000751151
1
0.849102
0.000751151
1
0.849102
1
0.335587
1
0.000751151
1
0.0851414
0.335587
1
0.0851414
1
1
0.455995
0.000751151
0.455995
0.282117
1
1
0.282117
0.0403201
0.0570212
1
0.000751151
1
0.0403201
0.0570212
0.0403201
0.0403201
