# vtk DataFile Version 4.1
vtk output
ASCII
DATASET UNSTRUCTURED_GRID

POINTS	15	float
0	0	0	
0	1000	0	
0	2000	0	
1000	0	0	
1000	1000	0	
1000	2000	0	
2000	0	0	
2000	1000	0	
2000	2000	0	
3000	0	0	
3000	1000	0	
3000	2000	0	
4000	0	0	
4000	1000	0	
4000	2000	0	

CELLS 38	114
2	1	0	
2	2	1	
2	3	0	
2	3	1	
2	4	0	
2	4	1	
2	4	2	
2	4	3	
2	5	1	
2	5	2	
2	5	4	
2	6	3	
2	6	4	
2	7	3	
2	7	4	
2	7	5	
2	7	6	
2	8	4	
2	8	5	
2	8	7	
2	9	6	
2	9	7	
2	10	6	
2	10	7	
2	10	8	
2	10	9	
2	11	7	
2	11	8	
2	11	10	
2	12	9	
2	12	10	
2	13	9	
2	13	10	
2	13	11	
2	13	12	
2	14	10	
2	14	11	
2	14	13	

CELL_TYPES	38
3
3
3
3
3
3
3
3
3
3
3
3
3
3
3
3
3
3
3
3
3
3
3
3
3
3
3
3
3
3
3
3
3
3
3
3
3
3

POINT_DATA	15
VECTORS u float
0	0	0	
-3.63597e-014	-3.18302	0	
0	0	0	
-153.183	-165.369	0	
8.01801e-014	-132.418	0	
153.183	-165.369	0	
-267.049	-438.688	0	
-1.42623e-013	-420.753	0	
267.049	-438.688	0	
-335.248	-807.476	0	
7.42856e-014	-795.685	0	
335.248	-807.476	0	
-355.258	-1207.54	0	
-5.75504e-014	-1227.55	0	
355.258	-1207.54	0	

CELL_DATA	38
SCALARS A float
LOOKUP_TABLE default
3.18302
3.18302
153.183
4.50147
66.2092
1.1654e-013
66.2092
32.9506
4.50147
153.183
32.9506
113.866
19.6101
51.1006
2.22803e-013
51.1006
17.9347
19.6101
113.866
17.9347
68.1989
25.7371
44.9736
2.16909e-013
44.9736
11.7913
25.7371
68.1989
11.7913
20.0099
28.2982
42.4125
1.31836e-013
42.4125
20.0099
28.2982
20.0099
20.0099
