# vtk DataFile Version 4.1
vtk output
ASCII
DATASET UNSTRUCTURED_GRID

POINTS	480	float
0.5	-0.5	0	
0.5	-0.45	0	
0.5	-0.4	0	
0.5	-0.35	0	
0.5	-0.3	0	
0.5	-0.25	0	
0.5	-0.2	0	
0.5	-0.15	0	
0.5	-0.1	0	
0.5	-0.05	0	
0.5	0	0	
0.5	0.05	0	
0.5	0.1	0	
0.5	0.15	0	
0.5	0.2	0	
0.5	0.25	0	
0.5	0.3	0	
0.5	0.35	0	
0.5	0.4	0	
0.5	0.45	0	
0.5	0.5	0	
0.45	0.5	0	
0.4	0.5	0	
0.35	0.5	0	
0.3	0.5	0	
0.25	0.5	0	
0.2	0.5	0	
0.15	0.5	0	
0.1	0.5	0	
0.05	0.5	0	
0	0.5	0	
-0.05	0.5	0	
-0.1	0.5	0	
-0.15	0.5	0	
-0.2	0.5	0	
-0.25	0.5	0	
-0.3	0.5	0	
-0.35	0.5	0	
-0.4	0.5	0	
-0.45	0.5	0	
-0.5	0.5	0	
-0.5	0.45	0	
-0.5	0.4	0	
-0.5	0.35	0	
-0.5	0.3	0	
-0.5	0.25	0	
-0.5	0.2	0	
-0.5	0.15	0	
-0.5	0.1	0	
-0.5	0.05	0	
-0.5	0	0	
-0.5	-0.05	0	
-0.5	-0.1	0	
-0.5	-0.15	0	
-0.5	-0.2	0	
-0.5	-0.25	0	
-0.5	-0.3	0	
-0.5	-0.35	0	
-0.5	-0.4	0	
-0.5	-0.45	0	
-0.5	-0.5	0	
-0.45	-0.5	0	
-0.4	-0.5	0	
-0.35	-0.5	0	
-0.3	-0.5	0	
-0.25	-0.5	0	
-0.2	-0.5	0	
-0.15	-0.5	0	
-0.1	-0.5	0	
-0.05	-0.5	0	
0	-0.5	0	
0.05	-0.5	0	
0.1	-0.5	0	
0.15	-0.5	0	
0.2	-0.5	0	
0.25	-0.5	0	
0.3	-0.5	0	
0.35	-0.5	0	
0.4	-0.5	0	
0.45	-0.5	0	
0.45	-0.45	0	
0.45	-0.405	0	
0.45	-0.36	0	
0.45	-0.315	0	
0.45	-0.27	0	
0.45	-0.225	0	
0.45	-0.18	0	
0.45	-0.135	0	
0.45	-0.09	0	
0.45	-0.045	0	
0.45	0	0	
0.45	0.045	0	
0.45	0.09	0	
0.45	0.135	0	
0.45	0.18	0	
0.45	0.225	0	
0.45	0.27	0	
0.45	0.315	0	
0.45	0.36	0	
0.45	0.405	0	
0.45	0.45	0	
0.405	0.45	0	
0.36	0.45	0	
0.315	0.45	0	
0.27	0.45	0	
0.225	0.45	0	
0.18	0.45	0	
0.135	0.45	0	
0.09	0.45	0	
0.045	0.45	0	
0	0.45	0	
-0.045	0.45	0	
-0.09	0.45	0	
-0.135	0.45	0	
-0.18	0.45	0	
-0.225	0.45	0	
-0.27	0.45	0	
-0.315	0.45	0	
-0.36	0.45	0	
-0.405	0.45	0	
-0.45	0.45	0	
-0.45	0.405	0	
-0.45	0.36	0	
-0.45	0.315	0	
-0.45	0.27	0	
-0.45	0.225	0	
-0.45	0.18	0	
-0.45	0.135	0	
-0.45	0.09	0	
-0.45	0.045	0	
-0.45	0	0	
-0.45	-0.045	0	
-0.45	-0.09	0	
-0.45	-0.135	0	
-0.45	-0.18	0	
-0.45	-0.225	0	
-0.45	-0.27	0	
-0.45	-0.315	0	
-0.45	-0.36	0	
-0.45	-0.405	0	
-0.45	-0.45	0	
-0.405	-0.45	0	
-0.36	-0.45	0	
-0.315	-0.45	0	
-0.27	-0.45	0	
-0.225	-0.45	0	
-0.18	-0.45	0	
-0.135	-0.45	0	
-0.09	-0.45	0	
-0.045	-0.45	0	
0	-0.45	0	
0.045	-0.45	0	
0.09	-0.45	0	
0.135	-0.45	0	
0.18	-0.45	0	
0.225	-0.45	0	
0.27	-0.45	0	
0.315	-0.45	0	
0.36	-0.45	0	
0.405	-0.45	0	
0.4	-0.4	0	
0.4	-0.36	0	
0.4	-0.32	0	
0.4	-0.28	0	
0.4	-0.24	0	
0.4	-0.2	0	
0.4	-0.16	0	
0.4	-0.12	0	
0.4	-0.08	0	
0.4	-0.04	0	
0.4	0	0	
0.4	0.04	0	
0.4	0.08	0	
0.4	0.12	0	
0.4	0.16	0	
0.4	0.2	0	
0.4	0.24	0	
0.4	0.28	0	
0.4	0.32	0	
0.4	0.36	0	
0.4	0.4	0	
0.36	0.4	0	
0.32	0.4	0	
0.28	0.4	0	
0.24	0.4	0	
0.2	0.4	0	
0.16	0.4	0	
0.12	0.4	0	
0.08	0.4	0	
0.04	0.4	0	
0	0.4	0	
-0.04	0.4	0	
-0.08	0.4	0	
-0.12	0.4	0	
-0.16	0.4	0	
-0.2	0.4	0	
-0.24	0.4	0	
-0.28	0.4	0	
-0.32	0.4	0	
-0.36	0.4	0	
-0.4	0.4	0	
-0.4	0.36	0	
-0.4	0.32	0	
-0.4	0.28	0	
-0.4	0.24	0	
-0.4	0.2	0	
-0.4	0.16	0	
-0.4	0.12	0	
-0.4	0.08	0	
-0.4	0.04	0	
-0.4	0	0	
-0.4	-0.04	0	
-0.4	-0.08	0	
-0.4	-0.12	0	
-0.4	-0.16	0	
-0.4	-0.2	0	
-0.4	-0.24	0	
-0.4	-0.28	0	
-0.4	-0.32	0	
-0.4	-0.36	0	
-0.4	-0.4	0	
-0.36	-0.4	0	
-0.32	-0.4	0	
-0.28	-0.4	0	
-0.24	-0.4	0	
-0.2	-0.4	0	
-0.16	-0.4	0	
-0.12	-0.4	0	
-0.08	-0.4	0	
-0.04	-0.4	0	
0	-0.4	0	
0.04	-0.4	0	
0.08	-0.4	0	
0.12	-0.4	0	
0.16	-0.4	0	
0.2	-0.4	0	
0.24	-0.4	0	
0.28	-0.4	0	
0.32	-0.4	0	
0.36	-0.4	0	
0.35	-0.35	0	
0.35	-0.315	0	
0.35	-0.28	0	
0.35	-0.245	0	
0.35	-0.21	0	
0.35	-0.175	0	
0.35	-0.14	0	
0.35	-0.105	0	
0.35	-0.07	0	
0.35	-0.035	0	
0.35	0	0	
0.35	0.035	0	
0.35	0.07	0	
0.35	0.105	0	
0.35	0.14	0	
0.35	0.175	0	
0.35	0.21	0	
0.35	0.245	0	
0.35	0.28	0	
0.35	0.315	0	
0.35	0.35	0	
0.315	0.35	0	
0.28	0.35	0	
0.245	0.35	0	
0.21	0.35	0	
0.175	0.35	0	
0.14	0.35	0	
0.105	0.35	0	
0.07	0.35	0	
0.035	0.35	0	
0	0.35	0	
-0.035	0.35	0	
-0.07	0.35	0	
-0.105	0.35	0	
-0.14	0.35	0	
-0.175	0.35	0	
-0.21	0.35	0	
-0.245	0.35	0	
-0.28	0.35	0	
-0.315	0.35	0	
-0.35	0.35	0	
-0.35	0.315	0	
-0.35	0.28	0	
-0.35	0.245	0	
-0.35	0.21	0	
-0.35	0.175	0	
-0.35	0.14	0	
-0.35	0.105	0	
-0.35	0.07	0	
-0.35	0.035	0	
-0.35	0	0	
-0.35	-0.035	0	
-0.35	-0.07	0	
-0.35	-0.105	0	
-0.35	-0.14	0	
-0.35	-0.175	0	
-0.35	-0.21	0	
-0.35	-0.245	0	
-0.35	-0.28	0	
-0.35	-0.315	0	
-0.35	-0.35	0	
-0.315	-0.35	0	
-0.28	-0.35	0	
-0.245	-0.35	0	
-0.21	-0.35	0	
-0.175	-0.35	0	
-0.14	-0.35	0	
-0.105	-0.35	0	
-0.07	-0.35	0	
-0.035	-0.35	0	
0	-0.35	0	
0.035	-0.35	0	
0.07	-0.35	0	
0.105	-0.35	0	
0.14	-0.35	0	
0.175	-0.35	0	
0.21	-0.35	0	
0.245	-0.35	0	
0.28	-0.35	0	
0.315	-0.35	0	
0.3	-0.3	0	
0.3	-0.27	0	
0.3	-0.24	0	
0.3	-0.21	0	
0.3	-0.18	0	
0.3	-0.15	0	
0.3	-0.12	0	
0.3	-0.09	0	
0.3	-0.06	0	
0.3	-0.03	0	
0.3	0	0	
0.3	0.03	0	
0.3	0.06	0	
0.3	0.09	0	
0.3	0.12	0	
0.3	0.15	0	
0.3	0.18	0	
0.3	0.21	0	
0.3	0.24	0	
0.3	0.27	0	
0.3	0.3	0	
0.27	0.3	0	
0.24	0.3	0	
0.21	0.3	0	
0.18	0.3	0	
0.15	0.3	0	
0.12	0.3	0	
0.09	0.3	0	
0.06	0.3	0	
0.03	0.3	0	
0	0.3	0	
-0.03	0.3	0	
-0.06	0.3	0	
-0.09	0.3	0	
-0.12	0.3	0	
-0.15	0.3	0	
-0.18	0.3	0	
-0.21	0.3	0	
-0.24	0.3	0	
-0.27	0.3	0	
-0.3	0.3	0	
-0.3	0.27	0	
-0.3	0.24	0	
-0.3	0.21	0	
-0.3	0.18	0	
-0.3	0.15	0	
-0.3	0.12	0	
-0.3	0.09	0	
-0.3	0.06	0	
-0.3	0.03	0	
-0.3	0	0	
-0.3	-0.03	0	
-0.3	-0.06	0	
-0.3	-0.09	0	
-0.3	-0.12	0	
-0.3	-0.15	0	
-0.3	-0.18	0	
-0.3	-0.21	0	
-0.3	-0.24	0	
-0.3	-0.27	0	
-0.3	-0.3	0	
-0.27	-0.3	0	
-0.24	-0.3	0	
-0.21	-0.3	0	
-0.18	-0.3	0	
-0.15	-0.3	0	
-0.12	-0.3	0	
-0.09	-0.3	0	
-0.06	-0.3	0	
-0.03	-0.3	0	
0	-0.3	0	
0.03	-0.3	0	
0.06	-0.3	0	
0.09	-0.3	0	
0.12	-0.3	0	
0.15	-0.3	0	
0.18	-0.3	0	
0.21	-0.3	0	
0.24	-0.3	0	
0.27	-0.3	0	
0.25	-0.25	0	
0.25	-0.225	0	
0.25	-0.2	0	
0.25	-0.175	0	
0.25	-0.15	0	
0.25	-0.125	0	
0.25	-0.1	0	
0.25	-0.075	0	
0.25	-0.05	0	
0.25	-0.025	0	
0.25	0	0	
0.25	0.025	0	
0.25	0.05	0	
0.25	0.075	0	
0.25	0.1	0	
0.25	0.125	0	
0.25	0.15	0	
0.25	0.175	0	
0.25	0.2	0	
0.25	0.225	0	
0.25	0.25	0	
0.225	0.25	0	
0.2	0.25	0	
0.175	0.25	0	
0.15	0.25	0	
0.125	0.25	0	
0.1	0.25	0	
0.075	0.25	0	
0.05	0.25	0	
0.025	0.25	0	
0	0.25	0	
-0.025	0.25	0	
-0.05	0.25	0	
-0.075	0.25	0	
-0.1	0.25	0	
-0.125	0.25	0	
-0.15	0.25	0	
-0.175	0.25	0	
-0.2	0.25	0	
-0.225	0.25	0	
-0.25	0.25	0	
-0.25	0.225	0	
-0.25	0.2	0	
-0.25	0.175	0	
-0.25	0.15	0	
-0.25	0.125	0	
-0.25	0.1	0	
-0.25	0.075	0	
-0.25	0.05	0	
-0.25	0.025	0	
-0.25	0	0	
-0.25	-0.025	0	
-0.25	-0.05	0	
-0.25	-0.075	0	
-0.25	-0.1	0	
-0.25	-0.125	0	
-0.25	-0.15	0	
-0.25	-0.175	0	
-0.25	-0.2	0	
-0.25	-0.225	0	
-0.25	-0.25	0	
-0.225	-0.25	0	
-0.2	-0.25	0	
-0.175	-0.25	0	
-0.15	-0.25	0	
-0.125	-0.25	0	
-0.1	-0.25	0	
-0.075	-0.25	0	
-0.05	-0.25	0	
-0.025	-0.25	0	
0	-0.25	0	
0.025	-0.25	0	
0.05	-0.25	0	
0.075	-0.25	0	
0.1	-0.25	0	
0.125	-0.25	0	
0.15	-0.25	0	
0.175	-0.25	0	
0.2	-0.25	0	
0.225	-0.25	0	

CELLS 400	2000
4	1	81	80	0	
4	2	82	81	1	
4	3	83	82	2	
4	4	84	83	3	
4	5	85	84	4	
4	6	86	85	5	
4	7	87	86	6	
4	8	88	87	7	
4	9	89	88	8	
4	10	90	89	9	
4	11	91	90	10	
4	12	92	91	11	
4	13	93	92	12	
4	14	94	93	13	
4	15	95	94	14	
4	16	96	95	15	
4	17	97	96	16	
4	18	98	97	17	
4	19	99	98	18	
4	20	100	99	19	
4	21	101	100	20	
4	22	102	101	21	
4	23	103	102	22	
4	24	104	103	23	
4	25	105	104	24	
4	26	106	105	25	
4	27	107	106	26	
4	28	108	107	27	
4	29	109	108	28	
4	30	110	109	29	
4	31	111	110	30	
4	32	112	111	31	
4	33	113	112	32	
4	34	114	113	33	
4	35	115	114	34	
4	36	116	115	35	
4	37	117	116	36	
4	38	118	117	37	
4	39	119	118	38	
4	40	120	119	39	
4	41	121	120	40	
4	42	122	121	41	
4	43	123	122	42	
4	44	124	123	43	
4	45	125	124	44	
4	46	126	125	45	
4	47	127	126	46	
4	48	128	127	47	
4	49	129	128	48	
4	50	130	129	49	
4	51	131	130	50	
4	52	132	131	51	
4	53	133	132	52	
4	54	134	133	53	
4	55	135	134	54	
4	56	136	135	55	
4	57	137	136	56	
4	58	138	137	57	
4	59	139	138	58	
4	60	140	139	59	
4	61	141	140	60	
4	62	142	141	61	
4	63	143	142	62	
4	64	144	143	63	
4	65	145	144	64	
4	66	146	145	65	
4	67	147	146	66	
4	68	148	147	67	
4	69	149	148	68	
4	70	150	149	69	
4	71	151	150	70	
4	72	152	151	71	
4	73	153	152	72	
4	74	154	153	73	
4	75	155	154	74	
4	76	156	155	75	
4	77	157	156	76	
4	78	158	157	77	
4	79	159	158	78	
4	0	80	159	79	
4	81	161	160	80	
4	82	162	161	81	
4	83	163	162	82	
4	84	164	163	83	
4	85	165	164	84	
4	86	166	165	85	
4	87	167	166	86	
4	88	168	167	87	
4	89	169	168	88	
4	90	170	169	89	
4	91	171	170	90	
4	92	172	171	91	
4	93	173	172	92	
4	94	174	173	93	
4	95	175	174	94	
4	96	176	175	95	
4	97	177	176	96	
4	98	178	177	97	
4	99	179	178	98	
4	100	180	179	99	
4	101	181	180	100	
4	102	182	181	101	
4	103	183	182	102	
4	104	184	183	103	
4	105	185	184	104	
4	106	186	185	105	
4	107	187	186	106	
4	108	188	187	107	
4	109	189	188	108	
4	110	190	189	109	
4	111	191	190	110	
4	112	192	191	111	
4	113	193	192	112	
4	114	194	193	113	
4	115	195	194	114	
4	116	196	195	115	
4	117	197	196	116	
4	118	198	197	117	
4	119	199	198	118	
4	120	200	199	119	
4	121	201	200	120	
4	122	202	201	121	
4	123	203	202	122	
4	124	204	203	123	
4	125	205	204	124	
4	126	206	205	125	
4	127	207	206	126	
4	128	208	207	127	
4	129	209	208	128	
4	130	210	209	129	
4	131	211	210	130	
4	132	212	211	131	
4	133	213	212	132	
4	134	214	213	133	
4	135	215	214	134	
4	136	216	215	135	
4	137	217	216	136	
4	138	218	217	137	
4	139	219	218	138	
4	140	220	219	139	
4	141	221	220	140	
4	142	222	221	141	
4	143	223	222	142	
4	144	224	223	143	
4	145	225	224	144	
4	146	226	225	145	
4	147	227	226	146	
4	148	228	227	147	
4	149	229	228	148	
4	150	230	229	149	
4	151	231	230	150	
4	152	232	231	151	
4	153	233	232	152	
4	154	234	233	153	
4	155	235	234	154	
4	156	236	235	155	
4	157	237	236	156	
4	158	238	237	157	
4	159	239	238	158	
4	80	160	239	159	
4	161	241	240	160	
4	162	242	241	161	
4	163	243	242	162	
4	164	244	243	163	
4	165	245	244	164	
4	166	246	245	165	
4	167	247	246	166	
4	168	248	247	167	
4	169	249	248	168	
4	170	250	249	169	
4	171	251	250	170	
4	172	252	251	171	
4	173	253	252	172	
4	174	254	253	173	
4	175	255	254	174	
4	176	256	255	175	
4	177	257	256	176	
4	178	258	257	177	
4	179	259	258	178	
4	180	260	259	179	
4	181	261	260	180	
4	182	262	261	181	
4	183	263	262	182	
4	184	264	263	183	
4	185	265	264	184	
4	186	266	265	185	
4	187	267	266	186	
4	188	268	267	187	
4	189	269	268	188	
4	190	270	269	189	
4	191	271	270	190	
4	192	272	271	191	
4	193	273	272	192	
4	194	274	273	193	
4	195	275	274	194	
4	196	276	275	195	
4	197	277	276	196	
4	198	278	277	197	
4	199	279	278	198	
4	200	280	279	199	
4	201	281	280	200	
4	202	282	281	201	
4	203	283	282	202	
4	204	284	283	203	
4	205	285	284	204	
4	206	286	285	205	
4	207	287	286	206	
4	208	288	287	207	
4	209	289	288	208	
4	210	290	289	209	
4	211	291	290	210	
4	212	292	291	211	
4	213	293	292	212	
4	214	294	293	213	
4	215	295	294	214	
4	216	296	295	215	
4	217	297	296	216	
4	218	298	297	217	
4	219	299	298	218	
4	220	300	299	219	
4	221	301	300	220	
4	222	302	301	221	
4	223	303	302	222	
4	224	304	303	223	
4	225	305	304	224	
4	226	306	305	225	
4	227	307	306	226	
4	228	308	307	227	
4	229	309	308	228	
4	230	310	309	229	
4	231	311	310	230	
4	232	312	311	231	
4	233	313	312	232	
4	234	314	313	233	
4	235	315	314	234	
4	236	316	315	235	
4	237	317	316	236	
4	238	318	317	237	
4	239	319	318	238	
4	160	240	319	239	
4	241	321	320	240	
4	242	322	321	241	
4	243	323	322	242	
4	244	324	323	243	
4	245	325	324	244	
4	246	326	325	245	
4	247	327	326	246	
4	248	328	327	247	
4	249	329	328	248	
4	250	330	329	249	
4	251	331	330	250	
4	252	332	331	251	
4	253	333	332	252	
4	254	334	333	253	
4	255	335	334	254	
4	256	336	335	255	
4	257	337	336	256	
4	258	338	337	257	
4	259	339	338	258	
4	260	340	339	259	
4	261	341	340	260	
4	262	342	341	261	
4	263	343	342	262	
4	264	344	343	263	
4	265	345	344	264	
4	266	346	345	265	
4	267	347	346	266	
4	268	348	347	267	
4	269	349	348	268	
4	270	350	349	269	
4	271	351	350	270	
4	272	352	351	271	
4	273	353	352	272	
4	274	354	353	273	
4	275	355	354	274	
4	276	356	355	275	
4	277	357	356	276	
4	278	358	357	277	
4	279	359	358	278	
4	280	360	359	279	
4	281	361	360	280	
4	282	362	361	281	
4	283	363	362	282	
4	284	364	363	283	
4	285	365	364	284	
4	286	366	365	285	
4	287	367	366	286	
4	288	368	367	287	
4	289	369	368	288	
4	290	370	369	289	
4	291	371	370	290	
4	292	372	371	291	
4	293	373	372	292	
4	294	374	373	293	
4	295	375	374	294	
4	296	376	375	295	
4	297	377	376	296	
4	298	378	377	297	
4	299	379	378	298	
4	300	380	379	299	
4	301	381	380	300	
4	302	382	381	301	
4	303	383	382	302	
4	304	384	383	303	
4	305	385	384	304	
4	306	386	385	305	
4	307	387	386	306	
4	308	388	387	307	
4	309	389	388	308	
4	310	390	389	309	
4	311	391	390	310	
4	312	392	391	311	
4	313	393	392	312	
4	314	394	393	313	
4	315	395	394	314	
4	316	396	395	315	
4	317	397	396	316	
4	318	398	397	317	
4	319	399	398	318	
4	240	320	399	319	
4	321	401	400	320	
4	322	402	401	321	
4	323	403	402	322	
4	324	404	403	323	
4	325	405	404	324	
4	326	406	405	325	
4	327	407	406	326	
4	328	408	407	327	
4	329	409	408	328	
4	330	410	409	329	
4	331	411	410	330	
4	332	412	411	331	
4	333	413	412	332	
4	334	414	413	333	
4	335	415	414	334	
4	336	416	415	335	
4	337	417	416	336	
4	338	418	417	337	
4	339	419	418	338	
4	340	420	419	339	
4	341	421	420	340	
4	342	422	421	341	
4	343	423	422	342	
4	344	424	423	343	
4	345	425	424	344	
4	346	426	425	345	
4	347	427	426	346	
4	348	428	427	347	
4	349	429	428	348	
4	350	430	429	349	
4	351	431	430	350	
4	352	432	431	351	
4	353	433	432	352	
4	354	434	433	353	
4	355	435	434	354	
4	356	436	435	355	
4	357	437	436	356	
4	358	438	437	357	
4	359	439	438	358	
4	360	440	439	359	
4	361	441	440	360	
4	362	442	441	361	
4	363	443	442	362	
4	364	444	443	363	
4	365	445	444	364	
4	366	446	445	365	
4	367	447	446	366	
4	368	448	447	367	
4	369	449	448	368	
4	370	450	449	369	
4	371	451	450	370	
4	372	452	451	371	
4	373	453	452	372	
4	374	454	453	373	
4	375	455	454	374	
4	376	456	455	375	
4	377	457	456	376	
4	378	458	457	377	
4	379	459	458	378	
4	380	460	459	379	
4	381	461	460	380	
4	382	462	461	381	
4	383	463	462	382	
4	384	464	463	383	
4	385	465	464	384	
4	386	466	465	385	
4	387	467	466	386	
4	388	468	467	387	
4	389	469	468	388	
4	390	470	469	389	
4	391	471	470	390	
4	392	472	471	391	
4	393	473	472	392	
4	394	474	473	393	
4	395	475	474	394	
4	396	476	475	395	
4	397	477	476	396	
4	398	478	477	397	
4	399	479	478	398	
4	320	400	479	399	

CELL_TYPES	400
9
9
9
9
9
9
9
9
9
9
9
9
9
9
9
9
9
9
9
9
9
9
9
9
9
9
9
9
9
9
9
9
9
9
9
9
9
9
9
9
9
9
9
9
9
9
9
9
9
9
9
9
9
9
9
9
9
9
9
9
9
9
9
9
9
9
9
9
9
9
9
9
9
9
9
9
9
9
9
9
9
9
9
9
9
9
9
9
9
9
9
9
9
9
9
9
9
9
9
9
9
9
9
9
9
9
9
9
9
9
9
9
9
9
9
9
9
9
9
9
9
9
9
9
9
9
9
9
9
9
9
9
9
9
9
9
9
9
9
9
9
9
9
9
9
9
9
9
9
9
9
9
9
9
9
9
9
9
9
9
9
9
9
9
9
9
9
9
9
9
9
9
9
9
9
9
9
9
9
9
9
9
9
9
9
9
9
9
9
9
9
9
9
9
9
9
9
9
9
9
9
9
9
9
9
9
9
9
9
9
9
9
9
9
9
9
9
9
9
9
9
9
9
9
9
9
9
9
9
9
9
9
9
9
9
9
9
9
9
9
9
9
9
9
9
9
9
9
9
9
9
9
9
9
9
9
9
9
9
9
9
9
9
9
9
9
9
9
9
9
9
9
9
9
9
9
9
9
9
9
9
9
9
9
9
9
9
9
9
9
9
9
9
9
9
9
9
9
9
9
9
9
9
9
9
9
9
9
9
9
9
9
9
9
9
9
9
9
9
9
9
9
9
9
9
9
9
9
9
9
9
9
9
9
9
9
9
9
9
9
9
9
9
9
9
9
9
9
9
9
9
9
9
9
9
9
9
9
9
9
9
9
9
9
9
9
9
9
9
9
9
9
9
9
9
9
9
9
9
9
9
9
9
9
9
9
9
9
9
9
9
9
9
9
9
9
9
9
9
9

POINT_DATA	480
VECTORS chi0 float
-3.37278e-016	-7.59453e-015	0	
-5.17139e-011	0.0164956	0	
-9.89584e-011	0.0320738	0	
-1.38807e-010	0.0458674	0	
-1.67177e-010	0.0562962	0	
-1.80136e-010	0.0614697	0	
-1.74778e-010	0.0600046	0	
-1.50752e-010	0.05176	0	
-1.10447e-010	0.0378	0	
-5.83006e-011	0.0198874	0	
1.47197e-016	-4.27403e-016	0	
5.83009e-011	-0.0198874	0	
1.10447e-010	-0.0378	0	
1.50753e-010	-0.05176	0	
1.74778e-010	-0.0600046	0	
1.80137e-010	-0.0614697	0	
1.67176e-010	-0.0562962	0	
1.38809e-010	-0.0458674	0	
9.89575e-011	-0.0320738	0	
5.17149e-011	-0.0164956	0	
-3.37278e-016	-7.59453e-015	0	
-0.00153431	4.38258e-011	0	
-0.00363233	8.30112e-011	0	
-0.00635812	1.13794e-010	0	
-0.00956829	1.32833e-010	0	
-0.0126512	1.38198e-010	0	
-0.0144982	1.29685e-010	0	
-0.0141334	1.08802e-010	0	
-0.0112327	7.81271e-011	0	
-0.00620882	4.07472e-011	0	
5.54512e-017	1.09232e-019	0	
0.00620882	-4.07468e-011	0	
0.0112327	-7.81272e-011	0	
0.0141334	-1.08802e-010	0	
0.0144982	-1.29686e-010	0	
0.0126512	-1.38196e-010	0	
0.00956829	-1.32837e-010	0	
0.00635812	-1.13786e-010	0	
0.00363233	-8.30219e-011	0	
0.00153431	-4.38133e-011	0	
-3.37278e-016	-7.59453e-015	0	
5.17149e-011	-0.0164956	0	
9.89575e-011	-0.0320738	0	
1.38809e-010	-0.0458674	0	
1.67176e-010	-0.0562962	0	
1.80137e-010	-0.0614697	0	
1.74778e-010	-0.0600046	0	
1.50753e-010	-0.05176	0	
1.10447e-010	-0.0378	0	
5.83009e-011	-0.0198874	0	
1.47197e-016	-4.27403e-016	0	
-5.83006e-011	0.0198874	0	
-1.10447e-010	0.0378	0	
-1.50752e-010	0.05176	0	
-1.74778e-010	0.0600046	0	
-1.80136e-010	0.0614697	0	
-1.67177e-010	0.0562962	0	
-1.38807e-010	0.0458674	0	
-9.89584e-011	0.0320738	0	
-5.17139e-011	0.0164956	0	
-3.37278e-016	-7.59453e-015	0	
0.00153431	-4.38133e-011	0	
0.00363233	-8.30219e-011	0	
0.00635812	-1.13786e-010	0	
0.00956829	-1.32837e-010	0	
0.0126512	-1.38196e-010	0	
0.0144982	-1.29686e-010	0	
0.0141334	-1.08802e-010	0	
0.0112327	-7.81272e-011	0	
0.00620882	-4.07468e-011	0	
5.54512e-017	1.09232e-019	0	
-0.00620882	4.07472e-011	0	
-0.0112327	7.81271e-011	0	
-0.0141334	1.08802e-010	0	
-0.0144982	1.29685e-010	0	
-0.0126512	1.38198e-010	0	
-0.00956829	1.32833e-010	0	
-0.00635812	1.13794e-010	0	
-0.00363233	8.30112e-011	0	
-0.00153431	4.38258e-011	0	
-0.00207218	0.0158821	0	
-0.00363311	0.0296152	0	
-0.00655616	0.0422929	0	
-0.0114633	0.0528469	0	
-0.0187147	0.0598321	0	
-0.0276498	0.0616669	0	
-0.0368107	0.0576291	0	
-0.0448165	0.0481435	0	
-0.0508019	0.0344033	0	
-0.0544205	0.017876	0	
-0.0556219	7.71383e-011	0	
-0.0544205	-0.017876	0	
-0.0508019	-0.0344033	0	
-0.0448165	-0.0481435	0	
-0.0368107	-0.0576291	0	
-0.0276498	-0.0616669	0	
-0.0187147	-0.0598321	0	
-0.0114633	-0.0528469	0	
-0.00655616	-0.0422929	0	
-0.00363311	-0.0296152	0	
-0.00207218	-0.0158821	0	
-0.00430669	-0.0148306	0	
-0.00684848	-0.013375	0	
-0.00970264	-0.0117978	0	
-0.0127633	-0.0108619	0	
-0.0152324	-0.0112788	0	
-0.0160995	-0.0129986	0	
-0.0147667	-0.0153929	0	
-0.0112532	-0.0176938	0	
-0.00607003	-0.0193001	0	
4.53697e-011	-0.0198707	0	
0.00607003	-0.0193001	0	
0.0112532	-0.0176938	0	
0.0147667	-0.0153929	0	
0.0160995	-0.0129986	0	
0.0152324	-0.0112788	0	
0.0127633	-0.0108619	0	
0.00970264	-0.0117978	0	
0.00684848	-0.013375	0	
0.00430669	-0.0148306	0	
0.00207218	-0.0158821	0	
0.00363311	-0.0296152	0	
0.00655616	-0.0422929	0	
0.0114633	-0.0528469	0	
0.0187147	-0.0598321	0	
0.0276498	-0.0616669	0	
0.0368107	-0.0576291	0	
0.0448165	-0.0481435	0	
0.0508019	-0.0344033	0	
0.0544205	-0.017876	0	
0.0556219	-7.71395e-011	0	
0.0544205	0.017876	0	
0.0508019	0.0344033	0	
0.0448165	0.0481435	0	
0.0368107	0.0576291	0	
0.0276498	0.0616669	0	
0.0187147	0.0598321	0	
0.0114633	0.0528469	0	
0.00655616	0.0422929	0	
0.00363311	0.0296152	0	
0.00207218	0.0158821	0	
0.00430669	0.0148306	0	
0.00684848	0.013375	0	
0.00970264	0.0117978	0	
0.0127633	0.0108619	0	
0.0152324	0.0112788	0	
0.0160995	0.0129986	0	
0.0147667	0.0153929	0	
0.0112532	0.0176938	0	
0.00607003	0.0193001	0	
-4.53697e-011	0.0198707	0	
-0.00607003	0.0193001	0	
-0.0112532	0.0176938	0	
-0.0147667	0.0153929	0	
-0.0160995	0.0129986	0	
-0.0152324	0.0112788	0	
-0.0127633	0.0108619	0	
-0.00970264	0.0117978	0	
-0.00684848	0.013375	0	
-0.00430669	0.0148306	0	
-0.00754861	0.0290864	0	
-0.0124016	0.0400562	0	
-0.0203066	0.0497463	0	
-0.0325504	0.0573875	0	
-0.0485926	0.0610015	0	
-0.0658829	0.0594355	0	
-0.0818876	0.0529438	0	
-0.094933	0.0425926	0	
-0.104274	0.0296347	0	
-0.10979	0.0151572	0	
-0.111604	1.54038e-010	0	
-0.10979	-0.0151572	0	
-0.104274	-0.0296347	0	
-0.094933	-0.0425926	0	
-0.0818876	-0.0529438	0	
-0.0658829	-0.0594355	0	
-0.0485926	-0.0610015	0	
-0.0325504	-0.0573875	0	
-0.0203066	-0.0497463	0	
-0.0124016	-0.0400562	0	
-0.00754861	-0.0290864	0	
-0.0106257	-0.0266604	0	
-0.0134734	-0.0236091	0	
-0.016739	-0.0212598	0	
-0.0196125	-0.0213578	0	
-0.0209304	-0.0240674	0	
-0.0200646	-0.0284262	0	
-0.0170407	-0.0331509	0	
-0.0122979	-0.0371704	0	
-0.00642317	-0.0398036	0	
9.14053e-011	-0.0407135	0	
0.00642317	-0.0398036	0	
0.0122979	-0.0371704	0	
0.0170407	-0.0331509	0	
0.0200646	-0.0284262	0	
0.0209304	-0.0240674	0	
0.0196125	-0.0213578	0	
0.016739	-0.0212598	0	
0.0134734	-0.0236091	0	
0.0106257	-0.0266604	0	
0.00754861	-0.0290864	0	
0.0124016	-0.0400562	0	
0.0203066	-0.0497463	0	
0.0325504	-0.0573875	0	
0.0485926	-0.0610015	0	
0.0658829	-0.0594355	0	
0.0818876	-0.0529438	0	
0.094933	-0.0425926	0	
0.104274	-0.0296347	0	
0.10979	-0.0151572	0	
0.111604	-1.5404e-010	0	
0.10979	0.0151572	0	
0.104274	0.0296347	0	
0.094933	0.0425926	0	
0.0818876	0.0529438	0	
0.0658829	0.0594355	0	
0.0485926	0.0610015	0	
0.0325504	0.0573875	0	
0.0203066	0.0497463	0	
0.0124016	0.0400562	0	
0.00754861	0.0290864	0	
0.0106257	0.0266604	0	
0.0134734	0.0236091	0	
0.016739	0.0212598	0	
0.0196125	0.0213578	0	
0.0209304	0.0240674	0	
0.0200646	0.0284262	0	
0.0170407	0.0331509	0	
0.0122979	0.0371704	0	
0.00642317	0.0398036	0	
-9.14053e-011	0.0407135	0	
-0.00642317	0.0398036	0	
-0.0122979	0.0371704	0	
-0.0170407	0.0331509	0	
-0.0200646	0.0284262	0	
-0.0209304	0.0240674	0	
-0.0196125	0.0213578	0	
-0.016739	0.0212598	0	
-0.0134734	0.0236091	0	
-0.0106257	0.0266604	0	
-0.0194588	0.0386318	0	
-0.0291145	0.0463927	0	
-0.0454142	0.0542633	0	
-0.0682376	0.0585425	0	
-0.0930384	0.0576805	0	
-0.116143	0.0523627	0	
-0.135433	0.0439865	0	
-0.150094	0.0338433	0	
-0.160139	0.0228344	0	
-0.165928	0.0114726	0	
-0.167812	2.2913e-010	0	
-0.165928	-0.0114726	0	
-0.160139	-0.0228344	0	
-0.150094	-0.0338433	0	
-0.135433	-0.0439865	0	
-0.116143	-0.0523627	0	
-0.0930384	-0.0576805	0	
-0.0682376	-0.0585425	0	
-0.0454142	-0.0542633	0	
-0.0291145	-0.0463927	0	
-0.0194588	-0.0386318	0	
-0.022148	-0.0339932	0	
-0.0262062	-0.0300638	0	
-0.0292735	-0.0302732	0	
-0.0300179	-0.0344311	0	
-0.0282396	-0.0409289	0	
-0.0243962	-0.0480169	0	
-0.0191503	-0.0543796	0	
-0.0130895	-0.0592416	0	
-0.00662353	-0.062241	0	
1.3819e-010	-0.0632498	0	
0.00662353	-0.062241	0	
0.0130895	-0.0592416	0	
0.0191503	-0.0543796	0	
0.0243962	-0.0480169	0	
0.0282396	-0.0409289	0	
0.0300179	-0.0344311	0	
0.0292735	-0.0302732	0	
0.0262062	-0.0300638	0	
0.022148	-0.0339932	0	
0.0194588	-0.0386318	0	
0.0291145	-0.0463927	0	
0.0454142	-0.0542633	0	
0.0682376	-0.0585425	0	
0.0930384	-0.0576805	0	
0.116143	-0.0523627	0	
0.135433	-0.0439865	0	
0.150094	-0.0338433	0	
0.160139	-0.0228344	0	
0.165928	-0.0114726	0	
0.167812	-2.29134e-010	0	
0.165928	0.0114726	0	
0.160139	0.0228344	0	
0.150094	0.0338433	0	
0.135433	0.0439865	0	
0.116143	0.0523627	0	
0.0930384	0.0576805	0	
0.0682376	0.0585425	0	
0.0454142	0.0542633	0	
0.0291145	0.0463927	0	
0.0194588	0.0386318	0	
0.022148	0.0339932	0	
0.0262062	0.0300638	0	
0.0292735	0.0302732	0	
0.0300179	0.0344311	0	
0.0282396	0.0409289	0	
0.0243962	0.0480169	0	
0.0191503	0.0543796	0	
0.0130895	0.0592416	0	
0.00662353	0.062241	0	
-1.3819e-010	0.0632498	0	
-0.00662353	0.062241	0	
-0.0130895	0.0592416	0	
-0.0191503	0.0543796	0	
-0.0243962	0.0480169	0	
-0.0282396	0.0409289	0	
-0.0300179	0.0344311	0	
-0.0292735	0.0302732	0	
-0.0262062	0.0300638	0	
-0.022148	0.0339932	0	
-0.0396872	0.0407452	0	
-0.0616121	0.0503211	0	
-0.0938889	0.0531521	0	
-0.126356	0.0500334	0	
-0.154935	0.0436703	0	
-0.178147	0.0360291	0	
-0.195853	0.028204	0	
-0.208566	0.0206658	0	
-0.216998	0.0135163	0	
-0.22178	0.00667651	0	
-0.223327	2.99153e-010	0	
-0.22178	-0.00667651	0	
-0.216998	-0.0135163	0	
-0.208566	-0.0206658	0	
-0.195853	-0.028204	0	
-0.178147	-0.0360291	0	
-0.154935	-0.0436703	0	
-0.126356	-0.0500334	0	
-0.0938889	-0.0531521	0	
-0.0616121	-0.0503211	0	
-0.0396872	-0.0407452	0	
-0.0469068	-0.0361889	0	
-0.0474648	-0.039145	0	
-0.0439809	-0.0466483	0	
-0.0382838	-0.0559906	0	
-0.0316238	-0.0652387	0	
-0.0247772	-0.0732671	0	
-0.0181416	-0.0795687	0	
-0.0118429	-0.0840111	0	
-0.00583905	-0.0866301	0	
1.84748e-010	-0.0874933	0	
0.00583905	-0.0866301	0	
0.0118429	-0.0840111	0	
0.0181416	-0.0795687	0	
0.0247772	-0.0732671	0	
0.0316238	-0.0652387	0	
0.0382838	-0.0559906	0	
0.0439809	-0.0466483	0	
0.0474648	-0.039145	0	
0.0469068	-0.0361889	0	
0.0396872	-0.0407452	0	
0.0616121	-0.0503211	0	
0.0938889	-0.0531521	0	
0.126356	-0.0500334	0	
0.154935	-0.0436703	0	
0.178147	-0.0360291	0	
0.195853	-0.028204	0	
0.208566	-0.0206658	0	
0.216998	-0.0135163	0	
0.22178	-0.00667651	0	
0.223327	-2.99156e-010	0	
0.22178	0.00667651	0	
0.216998	0.0135163	0	
0.208566	0.0206658	0	
0.195853	0.028204	0	
0.178147	0.0360291	0	
0.154935	0.0436703	0	
0.126356	0.0500334	0	
0.0938889	0.0531521	0	
0.0616121	0.0503211	0	
0.0396872	0.0407452	0	
0.0469068	0.0361889	0	
0.0474648	0.039145	0	
0.0439809	0.0466483	0	
0.0382838	0.0559906	0	
0.0316238	0.0652387	0	
0.0247772	0.0732671	0	
0.0181416	0.0795687	0	
0.0118429	0.0840111	0	
0.00583905	0.0866301	0	
-1.84748e-010	0.0874933	0	
-0.00583905	0.0866301	0	
-0.0118429	0.0840111	0	
-0.0181416	0.0795687	0	
-0.0247772	0.0732671	0	
-0.0316238	0.0652387	0	
-0.0382838	0.0559906	0	
-0.0439809	0.0466483	0	
-0.0474648	0.039145	0	
-0.0469068	0.0361889	0	
-0.093271	0.0459993	0	
-0.141228	0.0351502	0	
-0.17824	0.0247242	0	
-0.206998	0.0170639	0	
-0.229039	0.0119021	0	
-0.245608	0.00849782	0	
-0.257774	0.00616366	0	
-0.266404	0.0043934	0	
-0.272145	0.00286961	0	
-0.275428	0.00142678	0	
-0.276496	3.58204e-010	0	
-0.275428	-0.00142678	0	
-0.272145	-0.00286961	0	
-0.266404	-0.0043934	0	
-0.257774	-0.00616366	0	
-0.245608	-0.00849782	0	
-0.229039	-0.0119021	0	
-0.206998	-0.0170639	0	
-0.17824	-0.0247242	0	
-0.141228	-0.0351502	0	
-0.093271	-0.0459993	0	
-0.0700065	-0.0568883	0	
-0.0527195	-0.0686092	0	
-0.039682	-0.079559	0	
-0.0297769	-0.0889827	0	
-0.0221713	-0.0966435	0	
-0.0162043	-0.102584	0	
-0.0113547	-0.106963	0	
-0.00722445	-0.109952	0	
-0.00351564	-0.11169	0	
2.28096e-010	-0.11226	0	
0.00351564	-0.11169	0	
0.00722445	-0.109952	0	
0.0113547	-0.106963	0	
0.0162043	-0.102584	0	
0.0221713	-0.0966435	0	
0.0297769	-0.0889827	0	
0.039682	-0.079559	0	
0.0527195	-0.0686092	0	
0.0700065	-0.0568883	0	
0.093271	-0.0459993	0	
0.141228	-0.0351502	0	
0.17824	-0.0247242	0	
0.206998	-0.0170639	0	
0.229039	-0.0119021	0	
0.245608	-0.00849782	0	
0.257774	-0.00616366	0	
0.266404	-0.0043934	0	
0.272145	-0.00286961	0	
0.275428	-0.00142678	0	
0.276496	-3.58208e-010	0	
0.275428	0.00142678	0	
0.272145	0.00286961	0	
0.266404	0.0043934	0	
0.257774	0.00616366	0	
0.245608	0.00849782	0	
0.229039	0.0119021	0	
0.206998	0.0170639	0	
0.17824	0.0247242	0	
0.141228	0.0351502	0	
0.093271	0.0459993	0	
0.0700065	0.0568883	0	
0.0527195	0.0686092	0	
0.039682	0.079559	0	
0.0297769	0.0889827	0	
0.0221713	0.0966435	0	
0.0162043	0.102584	0	
0.0113547	0.106963	0	
0.00722445	0.109952	0	
0.00351564	0.11169	0	
-2.28096e-010	0.11226	0	
-0.00351564	0.11169	0	
-0.00722445	0.109952	0	
-0.0113547	0.106963	0	
-0.0162043	0.102584	0	
-0.0221713	0.0966435	0	
-0.0297769	0.0889827	0	
-0.039682	0.079559	0	
-0.0527195	0.0686092	0	
-0.0700065	0.0568883	0	
VECTORS chi1 float
8.33528e-015	2.72017e-015	0	
-4.38266e-011	0.00153431	0	
-8.30096e-011	0.00363233	0	
-1.13794e-010	0.00635812	0	
-1.32832e-010	0.00956829	0	
-1.38197e-010	0.0126512	0	
-1.29684e-010	0.0144982	0	
-1.08802e-010	0.0141334	0	
-7.81263e-011	0.0112327	0	
-4.0747e-011	0.00620882	0	
6.10244e-017	1.56506e-016	0	
4.07466e-011	-0.00620882	0	
7.81266e-011	-0.0112327	0	
1.08801e-010	-0.0141334	0	
1.29685e-010	-0.0144982	0	
1.38195e-010	-0.0126512	0	
1.32837e-010	-0.00956829	0	
1.13784e-010	-0.00635812	0	
8.3022e-011	-0.00363233	0	
4.38131e-011	-0.00153431	0	
8.33528e-015	2.72017e-015	0	
-0.0164956	5.17116e-011	0	
-0.0320738	9.89606e-011	0	
-0.0458674	1.38805e-010	0	
-0.0562962	1.67178e-010	0	
-0.0614697	1.80136e-010	0	
-0.0600046	1.74777e-010	0	
-0.05176	1.50752e-010	0	
-0.0378	1.10447e-010	0	
-0.0198874	5.83007e-011	0	
4.1488e-016	-1.41316e-017	0	
0.0198874	-5.83009e-011	0	
0.0378	-1.10447e-010	0	
0.05176	-1.50753e-010	0	
0.0600046	-1.74777e-010	0	
0.0614697	-1.80137e-010	0	
0.0562962	-1.67176e-010	0	
0.0458674	-1.38808e-010	0	
0.0320738	-9.89564e-011	0	
0.0164956	-5.1716e-011	0	
8.33528e-015	2.72017e-015	0	
4.38131e-011	-0.00153431	0	
8.3022e-011	-0.00363233	0	
1.13784e-010	-0.00635812	0	
1.32837e-010	-0.00956829	0	
1.38195e-010	-0.0126512	0	
1.29685e-010	-0.0144982	0	
1.08801e-010	-0.0141334	0	
7.81266e-011	-0.0112327	0	
4.07466e-011	-0.00620882	0	
6.10244e-017	1.56506e-016	0	
-4.0747e-011	0.00620882	0	
-7.81263e-011	0.0112327	0	
-1.08802e-010	0.0141334	0	
-1.29684e-010	0.0144982	0	
-1.38197e-010	0.0126512	0	
-1.32832e-010	0.00956829	0	
-1.13794e-010	0.00635812	0	
-8.30096e-011	0.00363233	0	
-4.38266e-011	0.00153431	0	
8.33528e-015	2.72017e-015	0	
0.0164956	-5.1716e-011	0	
0.0320738	-9.89564e-011	0	
0.0458674	-1.38808e-010	0	
0.0562962	-1.67176e-010	0	
0.0614697	-1.80137e-010	0	
0.0600046	-1.74777e-010	0	
0.05176	-1.50753e-010	0	
0.0378	-1.10447e-010	0	
0.0198874	-5.83009e-011	0	
4.1488e-016	-1.41316e-017	0	
-0.0198874	5.83007e-011	0	
-0.0378	1.10447e-010	0	
-0.05176	1.50752e-010	0	
-0.0600046	1.74777e-010	0	
-0.0614697	1.80136e-010	0	
-0.0562962	1.67178e-010	0	
-0.0458674	1.38805e-010	0	
-0.0320738	9.89606e-011	0	
-0.0164956	5.17116e-011	0	
-0.0158821	0.00207218	0	
-0.0148306	0.00430669	0	
-0.013375	0.00684848	0	
-0.0117978	0.00970264	0	
-0.0108619	0.0127633	0	
-0.0112788	0.0152324	0	
-0.0129986	0.0160995	0	
-0.0153929	0.0147667	0	
-0.0176938	0.0112532	0	
-0.0193001	0.00607003	0	
-0.0198707	4.53703e-011	0	
-0.0193001	-0.00607003	0	
-0.0176938	-0.0112532	0	
-0.0153929	-0.0147667	0	
-0.0129986	-0.0160995	0	
-0.0112788	-0.0152324	0	
-0.0108619	-0.0127633	0	
-0.0117978	-0.00970264	0	
-0.013375	-0.00684848	0	
-0.0148306	-0.00430669	0	
-0.0158821	-0.00207218	0	
-0.0296152	-0.00363311	0	
-0.0422929	-0.00655616	0	
-0.0528469	-0.0114633	0	
-0.0598321	-0.0187147	0	
-0.0616669	-0.0276498	0	
-0.0576291	-0.0368107	0	
-0.0481435	-0.0448165	0	
-0.0344033	-0.0508019	0	
-0.017876	-0.0544205	0	
7.71398e-011	-0.0556219	0	
0.017876	-0.0544205	0	
0.0344033	-0.0508019	0	
0.0481435	-0.0448165	0	
0.0576291	-0.0368107	0	
0.0616669	-0.0276498	0	
0.0598321	-0.0187147	0	
0.0528469	-0.0114633	0	
0.0422929	-0.00655616	0	
0.0296152	-0.00363311	0	
0.0158821	-0.00207218	0	
0.0148306	-0.00430669	0	
0.013375	-0.00684848	0	
0.0117978	-0.00970264	0	
0.0108619	-0.0127633	0	
0.0112788	-0.0152324	0	
0.0129986	-0.0160995	0	
0.0153929	-0.0147667	0	
0.0176938	-0.0112532	0	
0.0193001	-0.00607003	0	
0.0198707	-4.53699e-011	0	
0.0193001	0.00607003	0	
0.0176938	0.0112532	0	