# vtk DataFile Version 4.1
vtk output
ASCII
DATASET UNSTRUCTURED_GRID

POINTS	480	float
0.35	-0.35	0	
0.35	-0.315	0	
0.35	-0.28	0	
0.35	-0.245	0	
0.35	-0.21	0	
0.35	-0.175	0	
0.35	-0.14	0	
0.35	-0.105	0	
0.35	-0.07	0	
0.35	-0.035	0	
0.35	0	0	
0.35	0.035	0	
0.35	0.07	0	
0.35	0.105	0	
0.35	0.14	0	
0.35	0.175	0	
0.35	0.21	0	
0.35	0.245	0	
0.35	0.28	0	
0.35	0.315	0	
0.35	0.35	0	
0.315	0.35	0	
0.28	0.35	0	
0.245	0.35	0	
0.21	0.35	0	
0.175	0.35	0	
0.14	0.35	0	
0.105	0.35	0	
0.07	0.35	0	
0.035	0.35	0	
0	0.35	0	
-0.035	0.35	0	
-0.07	0.35	0	
-0.105	0.35	0	
-0.14	0.35	0	
-0.175	0.35	0	
-0.21	0.35	0	
-0.245	0.35	0	
-0.28	0.35	0	
-0.315	0.35	0	
-0.35	0.35	0	
-0.35	0.315	0	
-0.35	0.28	0	
-0.35	0.245	0	
-0.35	0.21	0	
-0.35	0.175	0	
-0.35	0.14	0	
-0.35	0.105	0	
-0.35	0.07	0	
-0.35	0.035	0	
-0.35	0	0	
-0.35	-0.035	0	
-0.35	-0.07	0	
-0.35	-0.105	0	
-0.35	-0.14	0	
-0.35	-0.175	0	
-0.35	-0.21	0	
-0.35	-0.245	0	
-0.35	-0.28	0	
-0.35	-0.315	0	
-0.35	-0.35	0	
-0.315	-0.35	0	
-0.28	-0.35	0	
-0.245	-0.35	0	
-0.21	-0.35	0	
-0.175	-0.35	0	
-0.14	-0.35	0	
-0.105	-0.35	0	
-0.07	-0.35	0	
-0.035	-0.35	0	
0	-0.35	0	
0.035	-0.35	0	
0.07	-0.35	0	
0.105	-0.35	0	
0.14	-0.35	0	
0.175	-0.35	0	
0.21	-0.35	0	
0.245	-0.35	0	
0.28	-0.35	0	
0.315	-0.35	0	
0.38	-0.38	0	
0.38	-0.342	0	
0.38	-0.304	0	
0.38	-0.266	0	
0.38	-0.228	0	
0.38	-0.19	0	
0.38	-0.152	0	
0.38	-0.114	0	
0.38	-0.076	0	
0.38	-0.038	0	
0.38	0	0	
0.38	0.038	0	
0.38	0.076	0	
0.38	0.114	0	
0.38	0.152	0	
0.38	0.19	0	
0.38	0.228	0	
0.38	0.266	0	
0.38	0.304	0	
0.38	0.342	0	
0.38	0.38	0	
0.342	0.38	0	
0.304	0.38	0	
0.266	0.38	0	
0.228	0.38	0	
0.19	0.38	0	
0.152	0.38	0	
0.114	0.38	0	
0.076	0.38	0	
0.038	0.38	0	
0	0.38	0	
-0.038	0.38	0	
-0.076	0.38	0	
-0.114	0.38	0	
-0.152	0.38	0	
-0.19	0.38	0	
-0.228	0.38	0	
-0.266	0.38	0	
-0.304	0.38	0	
-0.342	0.38	0	
-0.38	0.38	0	
-0.38	0.342	0	
-0.38	0.304	0	
-0.38	0.266	0	
-0.38	0.228	0	
-0.38	0.19	0	
-0.38	0.152	0	
-0.38	0.114	0	
-0.38	0.076	0	
-0.38	0.038	0	
-0.38	0	0	
-0.38	-0.038	0	
-0.38	-0.076	0	
-0.38	-0.114	0	
-0.38	-0.152	0	
-0.38	-0.19	0	
-0.38	-0.228	0	
-0.38	-0.266	0	
-0.38	-0.304	0	
-0.38	-0.342	0	
-0.38	-0.38	0	
-0.342	-0.38	0	
-0.304	-0.38	0	
-0.266	-0.38	0	
-0.228	-0.38	0	
-0.19	-0.38	0	
-0.152	-0.38	0	
-0.114	-0.38	0	
-0.076	-0.38	0	
-0.038	-0.38	0	
0	-0.38	0	
0.038	-0.38	0	
0.076	-0.38	0	
0.114	-0.38	0	
0.152	-0.38	0	
0.19	-0.38	0	
0.228	-0.38	0	
0.266	-0.38	0	
0.304	-0.38	0	
0.342	-0.38	0	
0.41	-0.41	0	
0.41	-0.369	0	
0.41	-0.328	0	
0.41	-0.287	0	
0.41	-0.246	0	
0.41	-0.205	0	
0.41	-0.164	0	
0.41	-0.123	0	
0.41	-0.082	0	
0.41	-0.041	0	
0.41	0	0	
0.41	0.041	0	
0.41	0.082	0	
0.41	0.123	0	
0.41	0.164	0	
0.41	0.205	0	
0.41	0.246	0	
0.41	0.287	0	
0.41	0.328	0	
0.41	0.369	0	
0.41	0.41	0	
0.369	0.41	0	
0.328	0.41	0	
0.287	0.41	0	
0.246	0.41	0	
0.205	0.41	0	
0.164	0.41	0	
0.123	0.41	0	
0.082	0.41	0	
0.041	0.41	0	
0	0.41	0	
-0.041	0.41	0	
-0.082	0.41	0	
-0.123	0.41	0	
-0.164	0.41	0	
-0.205	0.41	0	
-0.246	0.41	0	
-0.287	0.41	0	
-0.328	0.41	0	
-0.369	0.41	0	
-0.41	0.41	0	
-0.41	0.369	0	
-0.41	0.328	0	
-0.41	0.287	0	
-0.41	0.246	0	
-0.41	0.205	0	
-0.41	0.164	0	
-0.41	0.123	0	
-0.41	0.082	0	
-0.41	0.041	0	
-0.41	0	0	
-0.41	-0.041	0	
-0.41	-0.082	0	
-0.41	-0.123	0	
-0.41	-0.164	0	
-0.41	-0.205	0	
-0.41	-0.246	0	
-0.41	-0.287	0	
-0.41	-0.328	0	
-0.41	-0.369	0	
-0.41	-0.41	0	
-0.369	-0.41	0	
-0.328	-0.41	0	
-0.287	-0.41	0	
-0.246	-0.41	0	
-0.205	-0.41	0	
-0.164	-0.41	0	
-0.123	-0.41	0	
-0.082	-0.41	0	
-0.041	-0.41	0	
0	-0.41	0	
0.041	-0.41	0	
0.082	-0.41	0	
0.123	-0.41	0	
0.164	-0.41	0	
0.205	-0.41	0	
0.246	-0.41	0	
0.287	-0.41	0	
0.328	-0.41	0	
0.369	-0.41	0	
0.44	-0.44	0	
0.44	-0.396	0	
0.44	-0.352	0	
0.44	-0.308	0	
0.44	-0.264	0	
0.44	-0.22	0	
0.44	-0.176	0	
0.44	-0.132	0	
0.44	-0.088	0	
0.44	-0.044	0	
0.44	0	0	
0.44	0.044	0	
0.44	0.088	0	
0.44	0.132	0	
0.44	0.176	0	
0.44	0.22	0	
0.44	0.264	0	
0.44	0.308	0	
0.44	0.352	0	
0.44	0.396	0	
0.44	0.44	0	
0.396	0.44	0	
0.352	0.44	0	
0.308	0.44	0	
0.264	0.44	0	
0.22	0.44	0	
0.176	0.44	0	
0.132	0.44	0	
0.088	0.44	0	
0.044	0.44	0	
0	0.44	0	
-0.044	0.44	0	
-0.088	0.44	0	
-0.132	0.44	0	
-0.176	0.44	0	
-0.22	0.44	0	
-0.264	0.44	0	
-0.308	0.44	0	
-0.352	0.44	0	
-0.396	0.44	0	
-0.44	0.44	0	
-0.44	0.396	0	
-0.44	0.352	0	
-0.44	0.308	0	
-0.44	0.264	0	
-0.44	0.22	0	
-0.44	0.176	0	
-0.44	0.132	0	
-0.44	0.088	0	
-0.44	0.044	0	
-0.44	0	0	
-0.44	-0.044	0	
-0.44	-0.088	0	
-0.44	-0.132	0	
-0.44	-0.176	0	
-0.44	-0.22	0	
-0.44	-0.264	0	
-0.44	-0.308	0	
-0.44	-0.352	0	
-0.44	-0.396	0	
-0.44	-0.44	0	
-0.396	-0.44	0	
-0.352	-0.44	0	
-0.308	-0.44	0	
-0.264	-0.44	0	
-0.22	-0.44	0	
-0.176	-0.44	0	
-0.132	-0.44	0	
-0.088	-0.44	0	
-0.044	-0.44	0	
0	-0.44	0	
0.044	-0.44	0	
0.088	-0.44	0	
0.132	-0.44	0	
0.176	-0.44	0	
0.22	-0.44	0	
0.264	-0.44	0	
0.308	-0.44	0	
0.352	-0.44	0	
0.396	-0.44	0	
0.47	-0.47	0	
0.47	-0.423	0	
0.47	-0.376	0	
0.47	-0.329	0	
0.47	-0.282	0	
0.47	-0.235	0	
0.47	-0.188	0	
0.47	-0.141	0	
0.47	-0.094	0	
0.47	-0.047	0	
0.47	0	0	
0.47	0.047	0	
0.47	0.094	0	
0.47	0.141	0	
0.47	0.188	0	
0.47	0.235	0	
0.47	0.282	0	
0.47	0.329	0	
0.47	0.376	0	
0.47	0.423	0	
0.47	0.47	0	
0.423	0.47	0	
0.376	0.47	0	
0.329	0.47	0	
0.282	0.47	0	
0.235	0.47	0	
0.188	0.47	0	
0.141	0.47	0	
0.094	0.47	0	
0.047	0.47	0	
0	0.47	0	
-0.047	0.47	0	
-0.094	0.47	0	
-0.141	0.47	0	
-0.188	0.47	0	
-0.235	0.47	0	
-0.282	0.47	0	
-0.329	0.47	0	
-0.376	0.47	0	
-0.423	0.47	0	
-0.47	0.47	0	
-0.47	0.423	0	
-0.47	0.376	0	
-0.47	0.329	0	
-0.47	0.282	0	
-0.47	0.235	0	
-0.47	0.188	0	
-0.47	0.141	0	
-0.47	0.094	0	
-0.47	0.047	0	
-0.47	0	0	
-0.47	-0.047	0	
-0.47	-0.094	0	
-0.47	-0.141	0	
-0.47	-0.188	0	
-0.47	-0.235	0	
-0.47	-0.282	0	
-0.47	-0.329	0	
-0.47	-0.376	0	
-0.47	-0.423	0	
-0.47	-0.47	0	
-0.423	-0.47	0	
-0.376	-0.47	0	
-0.329	-0.47	0	
-0.282	-0.47	0	
-0.235	-0.47	0	
-0.188	-0.47	0	
-0.141	-0.47	0	
-0.094	-0.47	0	
-0.047	-0.47	0	
0	-0.47	0	
0.047	-0.47	0	
0.094	-0.47	0	
0.141	-0.47	0	
0.188	-0.47	0	
0.235	-0.47	0	
0.282	-0.47	0	
0.329	-0.47	0	
0.376	-0.47	0	
0.423	-0.47	0	
0.5	-0.5	0	
0.5	-0.45	0	
0.5	-0.4	0	
0.5	-0.35	0	
0.5	-0.3	0	
0.5	-0.25	0	
0.5	-0.2	0	
0.5	-0.15	0	
0.5	-0.1	0	
0.5	-0.05	0	
0.5	0	0	
0.5	0.05	0	
0.5	0.1	0	
0.5	0.15	0	
0.5	0.2	0	
0.5	0.25	0	
0.5	0.3	0	
0.5	0.35	0	
0.5	0.4	0	
0.5	0.45	0	
0.5	0.5	0	
0.45	0.5	0	
0.4	0.5	0	
0.35	0.5	0	
0.3	0.5	0	
0.25	0.5	0	
0.2	0.5	0	
0.15	0.5	0	
0.1	0.5	0	
0.05	0.5	0	
0	0.5	0	
-0.05	0.5	0	
-0.1	0.5	0	
-0.15	0.5	0	
-0.2	0.5	0	
-0.25	0.5	0	
-0.3	0.5	0	
-0.35	0.5	0	
-0.4	0.5	0	
-0.45	0.5	0	
-0.5	0.5	0	
-0.5	0.45	0	
-0.5	0.4	0	
-0.5	0.35	0	
-0.5	0.3	0	
-0.5	0.25	0	
-0.5	0.2	0	
-0.5	0.15	0	
-0.5	0.1	0	
-0.5	0.05	0	
-0.5	0	0	
-0.5	-0.05	0	
-0.5	-0.1	0	
-0.5	-0.15	0	
-0.5	-0.2	0	
-0.5	-0.25	0	
-0.5	-0.3	0	
-0.5	-0.35	0	
-0.5	-0.4	0	
-0.5	-0.45	0	
-0.5	-0.5	0	
-0.45	-0.5	0	
-0.4	-0.5	0	
-0.35	-0.5	0	
-0.3	-0.5	0	
-0.25	-0.5	0	
-0.2	-0.5	0	
-0.15	-0.5	0	
-0.1	-0.5	0	
-0.05	-0.5	0	
0	-0.5	0	
0.05	-0.5	0	
0.1	-0.5	0	
0.15	-0.5	0	
0.2	-0.5	0	
0.25	-0.5	0	
0.3	-0.5	0	
0.35	-0.5	0	
0.4	-0.5	0	
0.45	-0.5	0	

CELLS 400	2000
4	0	80	81	1	
4	1	81	82	2	
4	2	82	83	3	
4	3	83	84	4	
4	4	84	85	5	
4	5	85	86	6	
4	6	86	87	7	
4	7	87	88	8	
4	8	88	89	9	
4	9	89	90	10	
4	10	90	91	11	
4	11	91	92	12	
4	12	92	93	13	
4	13	93	94	14	
4	14	94	95	15	
4	15	95	96	16	
4	16	96	97	17	
4	17	97	98	18	
4	18	98	99	19	
4	19	99	100	20	
4	20	100	101	21	
4	21	101	102	22	
4	22	102	103	23	
4	23	103	104	24	
4	24	104	105	25	
4	25	105	106	26	
4	26	106	107	27	
4	27	107	108	28	
4	28	108	109	29	
4	29	109	110	30	
4	30	110	111	31	
4	31	111	112	32	
4	32	112	113	33	
4	33	113	114	34	
4	34	114	115	35	
4	35	115	116	36	
4	36	116	117	37	
4	37	117	118	38	
4	38	118	119	39	
4	39	119	120	40	
4	40	120	121	41	
4	41	121	122	42	
4	42	122	123	43	
4	43	123	124	44	
4	44	124	125	45	
4	45	125	126	46	
4	46	126	127	47	
4	47	127	128	48	
4	48	128	129	49	
4	49	129	130	50	
4	50	130	131	51	
4	51	131	132	52	
4	52	132	133	53	
4	53	133	134	54	
4	54	134	135	55	
4	55	135	136	56	
4	56	136	137	57	
4	57	137	138	58	
4	58	138	139	59	
4	59	139	140	60	
4	60	140	141	61	
4	61	141	142	62	
4	62	142	143	63	
4	63	143	144	64	
4	64	144	145	65	
4	65	145	146	66	
4	66	146	147	67	
4	67	147	148	68	
4	68	148	149	69	
4	69	149	150	70	
4	70	150	151	71	
4	71	151	152	72	
4	72	152	153	73	
4	73	153	154	74	
4	74	154	155	75	
4	75	155	156	76	
4	76	156	157	77	
4	77	157	158	78	
4	78	158	159	79	
4	79	159	80	0	
4	80	160	161	81	
4	81	161	162	82	
4	82	162	163	83	
4	83	163	164	84	
4	84	164	165	85	
4	85	165	166	86	
4	86	166	167	87	
4	87	167	168	88	
4	88	168	169	89	
4	89	169	170	90	
4	90	170	171	91	
4	91	171	172	92	
4	92	172	173	93	
4	93	173	174	94	
4	94	174	175	95	
4	95	175	176	96	
4	96	176	177	97	
4	97	177	178	98	
4	98	178	179	99	
4	99	179	180	100	
4	100	180	181	101	
4	101	181	182	102	
4	102	182	183	103	
4	103	183	184	104	
4	104	184	185	105	
4	105	185	186	106	
4	106	186	187	107	
4	107	187	188	108	
4	108	188	189	109	
4	109	189	190	110	
4	110	190	191	111	
4	111	191	192	112	
4	112	192	193	113	
4	113	193	194	114	
4	114	194	195	115	
4	115	195	196	116	
4	116	196	197	117	
4	117	197	198	118	
4	118	198	199	119	
4	119	199	200	120	
4	120	200	201	121	
4	121	201	202	122	
4	122	202	203	123	
4	123	203	204	124	
4	124	204	205	125	
4	125	205	206	126	
4	126	206	207	127	
4	127	207	208	128	
4	128	208	209	129	
4	129	209	210	130	
4	130	210	211	131	
4	131	211	212	132	
4	132	212	213	133	
4	133	213	214	134	
4	134	214	215	135	
4	135	215	216	136	
4	136	216	217	137	
4	137	217	218	138	
4	138	218	219	139	
4	139	219	220	140	
4	140	220	221	141	
4	141	221	222	142	
4	142	222	223	143	
4	143	223	224	144	
4	144	224	225	145	
4	145	225	226	146	
4	146	226	227	147	
4	147	227	228	148	
4	148	228	229	149	
4	149	229	230	150	
4	150	230	231	151	
4	151	231	232	152	
4	152	232	233	153	
4	153	233	234	154	
4	154	234	235	155	
4	155	235	236	156	
4	156	236	237	157	
4	157	237	238	158	
4	158	238	239	159	
4	159	239	160	80	
4	160	240	241	161	
4	161	241	242	162	
4	162	242	243	163	
4	163	243	244	164	
4	164	244	245	165	
4	165	245	246	166	
4	166	246	247	167	
4	167	247	248	168	
4	168	248	249	169	
4	169	249	250	170	
4	170	250	251	171	
4	171	251	252	172	
4	172	252	253	173	
4	173	253	254	174	
4	174	254	255	175	
4	175	255	256	176	
4	176	256	257	177	
4	177	257	258	178	
4	178	258	259	179	
4	179	259	260	180	
4	180	260	261	181	
4	181	261	262	182	
4	182	262	263	183	
4	183	263	264	184	
4	184	264	265	185	
4	185	265	266	186	
4	186	266	267	187	
4	187	267	268	188	
4	188	268	269	189	
4	189	269	270	190	
4	190	270	271	191	
4	191	271	272	192	
4	192	272	273	193	
4	193	273	274	194	
4	194	274	275	195	
4	195	275	276	196	
4	196	276	277	197	
4	197	277	278	198	
4	198	278	279	199	
4	199	279	280	200	
4	200	280	281	201	
4	201	281	282	202	
4	202	282	283	203	
4	203	283	284	204	
4	204	284	285	205	
4	205	285	286	206	
4	206	286	287	207	
4	207	287	288	208	
4	208	288	289	209	
4	209	289	290	210	
4	210	290	291	211	
4	211	291	292	212	
4	212	292	293	213	
4	213	293	294	214	
4	214	294	295	215	
4	215	295	296	216	
4	216	296	297	217	
4	217	297	298	218	
4	218	298	299	219	
4	219	299	300	220	
4	220	300	301	221	
4	221	301	302	222	
4	222	302	303	223	
4	223	303	304	224	
4	224	304	305	225	
4	225	305	306	226	
4	226	306	307	227	
4	227	307	308	228	
4	228	308	309	229	
4	229	309	310	230	
4	230	310	311	231	
4	231	311	312	232	
4	232	312	313	233	
4	233	313	314	234	
4	234	314	315	235	
4	235	315	316	236	
4	236	316	317	237	
4	237	317	318	238	
4	238	318	319	239	
4	239	319	240	160	
4	240	320	321	241	
4	241	321	322	242	
4	242	322	323	243	
4	243	323	324	244	
4	244	324	325	245	
4	245	325	326	246	
4	246	326	327	247	
4	247	327	328	248	
4	248	328	329	249	
4	249	329	330	250	
4	250	330	331	251	
4	251	331	332	252	
4	252	332	333	253	
4	253	333	334	254	
4	254	334	335	255	
4	255	335	336	256	
4	256	336	337	257	
4	257	337	338	258	
4	258	338	339	259	
4	259	339	340	260	
4	260	340	341	261	
4	261	341	342	262	
4	262	342	343	263	
4	263	343	344	264	
4	264	344	345	265	
4	265	345	346	266	
4	266	346	347	267	
4	267	347	348	268	
4	268	348	349	269	
4	269	349	350	270	
4	270	350	351	271	
4	271	351	352	272	
4	272	352	353	273	
4	273	353	354	274	
4	274	354	355	275	
4	275	355	356	276	
4	276	356	357	277	
4	277	357	358	278	
4	278	358	359	279	
4	279	359	360	280	
4	280	360	361	281	
4	281	361	362	282	
4	282	362	363	283	
4	283	363	364	284	
4	284	364	365	285	
4	285	365	366	286	
4	286	366	367	287	
4	287	367	368	288	
4	288	368	369	289	
4	289	369	370	290	
4	290	370	371	291	
4	291	371	372	292	
4	292	372	373	293	
4	293	373	374	294	
4	294	374	375	295	
4	295	375	376	296	
4	296	376	377	297	
4	297	377	378	298	
4	298	378	379	299	
4	299	379	380	300	
4	300	380	381	301	
4	301	381	382	302	
4	302	382	383	303	
4	303	383	384	304	
4	304	384	385	305	
4	305	385	386	306	
4	306	386	387	307	
4	307	387	388	308	
4	308	388	389	309	
4	309	389	390	310	
4	310	390	391	311	
4	311	391	392	312	
4	312	392	393	313	
4	313	393	394	314	
4	314	394	395	315	
4	315	395	396	316	
4	316	396	397	317	
4	317	397	398	318	
4	318	398	399	319	
4	319	399	320	240	
4	320	400	401	321	
4	321	401	402	322	
4	322	402	403	323	
4	323	403	404	324	
4	324	404	405	325	
4	325	405	406	326	
4	326	406	407	327	
4	327	407	408	328	
4	328	408	409	329	
4	329	409	410	330	
4	330	410	411	331	
4	331	411	412	332	
4	332	412	413	333	
4	333	413	414	334	
4	334	414	415	335	
4	335	415	416	336	
4	336	416	417	337	
4	337	417	418	338	
4	338	418	419	339	
4	339	419	420	340	
4	340	420	421	341	
4	341	421	422	342	
4	342	422	423	343	
4	343	423	424	344	
4	344	424	425	345	
4	345	425	426	346	
4	346	426	427	347	
4	347	427	428	348	
4	348	428	429	349	
4	349	429	430	350	
4	350	430	431	351	
4	351	431	432	352	
4	352	432	433	353	
4	353	433	434	354	
4	354	434	435	355	
4	355	435	436	356	
4	356	436	437	357	
4	357	437	438	358	
4	358	438	439	359	
4	359	439	440	360	
4	360	440	441	361	
4	361	441	442	362	
4	362	442	443	363	
4	363	443	444	364	
4	364	444	445	365	
4	365	445	446	366	
4	366	446	447	367	
4	367	447	448	368	
4	368	448	449	369	
4	369	449	450	370	
4	370	450	451	371	
4	371	451	452	372	
4	372	452	453	373	
4	373	453	454	374	
4	374	454	455	375	
4	375	455	456	376	
4	376	456	457	377	
4	377	457	458	378	
4	378	458	459	379	
4	379	459	460	380	
4	380	460	461	381	
4	381	461	462	382	
4	382	462	463	383	
4	383	463	464	384	
4	384	464	465	385	
4	385	465	466	386	
4	386	466	467	387	
4	387	467	468	388	
4	388	468	469	389	
4	389	469	470	390	
4	390	470	471	391	
4	391	471	472	392	
4	392	472	473	393	
4	393	473	474	394	
4	394	474	475	395	
4	395	475	476	396	
4	396	476	477	397	
4	397	477	478	398	
4	398	478	479	399	
4	399	479	400	320	

CELL_TYPES	400
9
9
9
9
9
9
9
9
9
9
9
9
9
9
9
9
9
9
9
9
9
9
9
9
9
9
9
9
9
9
9
9
9
9
9
9
9
9
9
9
9
9
9
9
9
9
9
9
9
9
9
9
9
9
9
9
9
9
9
9
9
9
9
9
9
9
9
9
9
9
9
9
9
9
9
9
9
9
9
9
9
9
9
9
9
9
9
9
9
9
9
9
9
9
9
9
9
9
9
9
9
9
9
9
9
9
9
9
9
9
9
9
9
9
9
9
9
9
9
9
9
9
9
9
9
9
9
9
9
9
9
9
9
9
9
9
9
9
9
9
9
9
9
9
9
9
9
9
9
9
9
9
9
9
9
9
9
9
9
9
9
9
9
9
9
9
9
9
9
9
9
9
9
9
9
9
9
9
9
9
9
9
9
9
9
9
9
9
9
9
9
9
9
9
9
9
9
9
9
9
9
9
9
9
9
9
9
9
9
9
9
9
9
9
9
9
9
9
9
9
9
9
9
9
9
9
9
9
9
9
9
9
9
9
9
9
9
9
9
9
9
9
9
9
9
9
9
9
9
9
9
9
9
9
9
9
9
9
9
9
9
9
9
9
9
9
9
9
9
9
9
9
9
9
9
9
9
9
9
9
9
9
9
9
9
9
9
9
9
9
9
9
9
9
9
9
9
9
9
9
9
9
9
9
9
9
9
9
9
9
9
9
9
9
9
9
9
9
9
9
9
9
9
9
9
9
9
9
9
9
9
9
9
9
9
9
9
9
9
9
9
9
9
9
9
9
9
9
9
9
9
9
9
9
9
9
9
9
9
9
9
9
9
9
9
9
9
9
9
9
9
9
9
9
9
9
9
9
9
9
9
9
9
9
9
9
9
9
9
9
9
9
9
9
9
9
9
9
9
9

POINT_DATA	480
VECTORS chi0 float
-0.0600188	0.0389976	0	
-0.10746	0.0319737	0	
-0.134517	0.0281777	0	
-0.149666	0.0271744	0	
-0.157448	0.0261103	0	
-0.161056	0.0240059	0	
-0.162466	0.0206886	0	
-0.162827	0.0163496	0	
-0.162775	0.0112762	0	
-0.162641	0.00574604	0	
-0.162581	1.62984e-010	0	
-0.162641	-0.00574604	0	
-0.162775	-0.0112762	0	
-0.162827	-0.0163496	0	
-0.162466	-0.0206886	0	
-0.161056	-0.0240059	0	
-0.157448	-0.0261103	0	
-0.149666	-0.0271744	0	
-0.134517	-0.0281777	0	
-0.10746	-0.0319737	0	
-0.0600188	-0.0389976	0	
-0.03716	-0.0453677	0	
-0.0262865	-0.0536201	0	
-0.0200919	-0.0599701	0	
-0.0161823	-0.0642697	0	
-0.0132567	-0.0669647	0	
-0.0106629	-0.0685595	0	
-0.00810406	-0.0694516	0	
-0.00547416	-0.0699172	0	
-0.0027619	-0.0701323	0	
7.91237e-011	-0.0701937	0	
0.0027619	-0.0701323	0	
0.00547416	-0.0699172	0	
0.00810406	-0.0694516	0	
0.0106629	-0.0685595	0	
0.0132567	-0.0669647	0	
0.0161823	-0.0642697	0	
0.0200919	-0.0599701	0	
0.0262865	-0.0536201	0	
0.03716	-0.0453677	0	
0.0600188	-0.0389976	0	
0.10746	-0.0319737	0	
0.134517	-0.0281777	0	
0.149666	-0.0271744	0	
0.157448	-0.0261103	0	
0.161056	-0.0240059	0	
0.162466	-0.0206886	0	
0.162827	-0.0163496	0	
0.162775	-0.0112762	0	
0.162641	-0.00574604	0	
0.162581	-1.62984e-010	0	
0.162641	0.00574604	0	
0.162775	0.0112762	0	
0.162827	0.0163496	0	
0.162466	0.0206886	0	
0.161056	0.0240059	0	
0.157448	0.0261103	0	
0.149666	0.0271744	0	
0.134517	0.0281777	0	
0.10746	0.0319737	0	
0.0600188	0.0389976	0	
0.03716	0.0453677	0	
0.0262865	0.0536201	0	
0.0200919	0.0599701	0	
0.0161823	0.0642697	0	
0.0132567	0.0669647	0	
0.0106629	0.0685595	0	
0.00810406	0.0694516	0	
0.00547416	0.0699172	0	
0.0027619	0.0701323	0	
-7.91235e-011	0.0701937	0	
-0.0027619	0.0701323	0	
-0.00547416	0.0699172	0	
-0.00810406	0.0694516	0	
-0.0106629	0.0685595	0	
-0.0132567	0.0669647	0	
-0.0161823	0.0642697	0	
-0.0200919	0.0599701	0	
-0.0262865	0.0536201	0	
-0.03716	0.0453677	0	
-0.0276741	0.0338859	0	
-0.0578388	0.0450677	0	
-0.0901789	0.0440779	0	
-0.11138	0.0391192	0	
-0.12305	0.0340437	0	
-0.128481	0.0290826	0	
-0.1305	0.0239334	0	
-0.130924	0.0184072	0	
-0.130763	0.0125031	0	
-0.130521	0.00632213	0	
-0.130419	1.39181e-010	0	
-0.13052	-0.00632213	0	
-0.130763	-0.0125031	0	
-0.130924	-0.0184072	0	
-0.1305	-0.0239334	0	
-0.128481	-0.0290826	0	
-0.12305	-0.0340437	0	
-0.11138	-0.0391192	0	
-0.0901789	-0.0440779	0	
-0.0578388	-0.0450677	0	
-0.0276741	-0.0338859	0	
-0.0333228	-0.0303869	0	
-0.0298414	-0.0354452	0	
-0.0247967	-0.0425569	0	
-0.0201218	-0.0482725	0	
-0.0161597	-0.0520344	0	
-0.0126931	-0.0542331	0	
-0.009464	-0.055406	0	
-0.00630984	-0.0559769	0	
-0.00315997	-0.0562208	0	
6.79193e-011	-0.0562865	0	
0.00315997	-0.0562208	0	
0.00630984	-0.0559769	0	
0.009464	-0.055406	0	
0.0126931	-0.0542331	0	
0.0161597	-0.0520344	0	
0.0201218	-0.0482725	0	
0.0247967	-0.0425569	0	
0.0298414	-0.0354452	0	
0.0333228	-0.0303869	0	
0.0276741	-0.0338859	0	
0.0578388	-0.0450677	0	
0.0901789	-0.0440779	0	
0.11138	-0.0391192	0	
0.12305	-0.0340437	0	
0.128481	-0.0290826	0	
0.1305	-0.0239334	0	
0.130924	-0.0184072	0	
0.130763	-0.0125031	0	
0.130521	-0.00632213	0	
0.130419	-1.39181e-010	0	
0.13052	0.00632213	0	
0.130763	0.0125031	0	
0.130924	0.0184072	0	
0.1305	0.0239334	0	
0.128481	0.0290826	0	
0.12305	0.0340437	0	
0.11138	0.0391192	0	
0.0901789	0.0440779	0	
0.0578388	0.0450677	0	
0.0276741	0.0338859	0	
0.0333228	0.0303869	0	
0.0298414	0.0354452	0	
0.0247967	0.0425569	0	
0.0201218	0.0482725	0	
0.0161597	0.0520344	0	
0.0126931	0.0542331	0	
0.009464	0.055406	0	
0.00630984	0.0559769	0	
0.00315997	0.0562208	0	
-6.79192e-011	0.0562865	0	
-0.00315997	0.0562208	0	
-0.00630984	0.0559769	0	
-0.009464	0.055406	0	
-0.0126931	0.0542331	0	
-0.0161597	0.0520344	0	
-0.0201218	0.0482725	0	
-0.0247967	0.0425569	0	
-0.0298414	0.0354452	0	
-0.0333228	0.0303869	0	
-0.0134705	0.0301295	0	
-0.0288921	0.0429291	0	
-0.052196	0.0502904	0	
-0.0737787	0.0489553	0	
-0.0878094	0.0431014	0	
-0.0950561	0.0359728	0	
-0.0979526	0.0286981	0	
-0.0986548	0.0214926	0	
-0.0985158	0.0143276	0	
-0.098235	0.00716652	0	
-0.0981143	1.09158e-010	0	
-0.098235	-0.00716652	0	
-0.0985158	-0.0143276	0	
-0.0986548	-0.0214926	0	
-0.0979526	-0.0286981	0	
-0.0950561	-0.0359728	0	
-0.0878094	-0.0431014	0	
-0.0737787	-0.0489553	0	
-0.052196	-0.0502904	0	
-0.0288921	-0.0429291	0	
-0.0134705	-0.0301295	0	
-0.018757	-0.0248995	0	
-0.0231394	-0.0236425	0	
-0.0236813	-0.0276953	0	
-0.0214832	-0.0330146	0	
-0.0181387	-0.037222	0	
-0.0144999	-0.0398645	0	
-0.0108443	-0.0412883	0	
-0.00721626	-0.0419619	0	
-0.00360524	-0.0422355	0	
5.34835e-011	-0.0423061	0	
0.00360524	-0.0422355	0	
0.00721626	-0.0419619	0	
0.0108443	-0.0412883	0	
0.0144999	-0.0398645	0	
0.0181387	-0.037222	0	
0.0214832	-0.0330146	0	
0.0236813	-0.0276953	0	
0.0231394	-0.0236425	0	
0.018757	-0.0248995	0	
0.0134705	-0.0301295	0	
0.0288921	-0.0429291	0	
0.052196	-0.0502904	0	
0.0737787	-0.0489553	0	
0.0878094	-0.0431014	0	
0.0950561	-0.0359728	0	
0.0979526	-0.0286981	0	
0.0986548	-0.0214926	0	
0.0985158	-0.0143276	0	
0.098235	-0.00716652	0	
0.0981143	-1.09158e-010	0	
0.098235	0.00716652	0	
0.0985158	0.0143276	0	
0.0986548	0.0214926	0	
0.0979526	0.0286981	0	
0.0950561	0.0359728	0	
0.0878094	0.0431014	0	
0.0737787	0.0489553	0	
0.052196	0.0502904	0	
0.0288921	0.0429291	0	
0.0134705	0.0301295	0	
0.018757	0.0248995	0	
0.0231394	0.0236425	0	
0.0236813	0.0276953	0	
0.0214832	0.0330146	0	
0.0181387	0.037222	0	
0.0144999	0.0398645	0	
0.0108443	0.0412883	0	
0.00721626	0.0419619	0	
0.00360524	0.0422355	0	
-5.34834e-011	0.0423061	0	
-0.00360524	0.0422355	0	
-0.00721626	0.0419619	0	
-0.0108443	0.0412883	0	
-0.0144999	0.0398645	0	
-0.0181387	0.037222	0	
-0.0214832	0.0330146	0	
-0.0236813	0.0276953	0	
-0.0231394	0.0236425	0	
-0.018757	0.0248995	0	
-0.00551964	0.0226225	0	
-0.0127128	0.0380748	0	
-0.026004	0.0494588	0	
-0.0416658	0.0533915	0	
-0.0542557	0.0499826	0	
-0.0616938	0.0425558	0	
-0.0650063	0.0337986	0	
-0.0659609	0.0249612	0	
-0.0659336	0.0164076	0	
-0.0656958	0.00812876	0	
-0.0655865	7.48793e-011	0	
-0.0656958	-0.00812876	0	
-0.0659336	-0.0164076	0	
-0.0659609	-0.0249612	0	
-0.0650063	-0.0337986	0	
-0.0616938	-0.0425558	0	
-0.0542557	-0.0499826	0	
-0.0416658	-0.0533915	0	
-0.026004	-0.0494588	0	
-0.0127128	-0.0380748	0	
-0.00551964	-0.0226225	0	
-0.0102544	-0.0190338	0	
-0.0151413	-0.0162124	0	
-0.0190808	-0.0167141	0	
-0.0202129	-0.0199062	0	
-0.0187352	-0.0233659	0	
-0.0157274	-0.0258488	0	
-0.0120267	-0.027256	0	
-0.00807066	-0.0279224	0	
-0.00404182	-0.0281854	0	
3.67946e-011	-0.028251	0	
0.00404182	-0.0281854	0	
0.00807066	-0.0279224	0	
0.0120267	-0.027256	0	
0.0157274	-0.0258488	0	
0.0187352	-0.0233659	0	
0.0202129	-0.0199062	0	
0.0190808	-0.0167141	0	
0.0151413	-0.0162124	0	
0.0102544	-0.0190338	0	
0.00551964	-0.0226225	0	
0.0127128	-0.0380748	0	
0.026004	-0.0494588	0	
0.0416658	-0.0533915	0	
0.0542557	-0.0499826	0	
0.0616938	-0.0425558	0	
0.0650063	-0.0337986	0	
0.0659609	-0.0249612	0	
0.0659336	-0.0164076	0	
0.0656958	-0.00812876	0	
0.0655865	-7.48793e-011	0	
0.0656958	0.00812876	0	
0.0659336	0.0164076	0	
0.0659609	0.0249612	0	
0.0650063	0.0337986	0	
0.0616938	0.0425558	0	
0.0542557	0.0499826	0	
0.0416658	0.0533915	0	
0.026004	0.0494588	0	
0.0127128	0.0380748	0	
0.00551964	0.0226225	0	
0.0102544	0.0190338	0	
0.0151413	0.0162124	0	
0.0190808	0.0167141	0	
0.0202129	0.0199062	0	
0.0187352	0.0233659	0	
0.0157274	0.0258488	0	
0.0120267	0.027256	0	
0.00807066	0.0279224	0	
0.00404182	0.0281854	0	
-3.67945e-011	0.028251	0	
-0.00404182	0.0281854	0	
-0.00807066	0.0279224	0	
-0.0120267	0.027256	0	
-0.0157274	0.0258488	0	
-0.0187352	0.0233659	0	
-0.0202129	0.0199062	0	
-0.0190808	0.0167141	0	
-0.0151413	0.0162124	0	
-0.0102544	0.0190338	0	
-0.00160464	0.012348	0	
-0.00395225	0.0306432	0	
-0.00936846	0.045546	0	
-0.0171538	0.0537213	0	
-0.0246123	0.0537503	0	
-0.0296768	0.0475125	0	
-0.0321747	0.0382124	0	
-0.0329945	0.0281571	0	
-0.0330527	0.0183692	0	
-0.0329197	0.00904135	0	
-0.0328527	3.80202e-011	0	
-0.0329197	-0.00904135	0	
-0.0330527	-0.0183692	0	
-0.0329945	-0.0281571	0	
-0.0321747	-0.0382124	0	
-0.0296768	-0.0475125	0	
-0.0246123	-0.0537503	0	
-0.0171538	-0.0537213	0	
-0.00936846	-0.045546	0	
-0.00395225	-0.0306432	0	
-0.00160464	-0.012348	0	
-0.00527643	-0.0107096	0	
-0.00986307	-0.00881479	0	
-0.0146761	-0.00810812	0	
-0.0179448	-0.00913695	0	
-0.0184167	-0.0109645	0	
-0.0164242	-0.0125218	0	
-0.0129524	-0.0134677	0	
-0.0088083	-0.0139217	0	
-0.00443202	-0.0140974	0	
1.87155e-011	-0.0141401	0	
0.00443202	-0.0140974	0	
0.0088083	-0.0139217	0	
0.0129524	-0.0134677	0	
0.0164242	-0.0125218	0	
0.0184167	-0.0109645	0	
0.0179448	-0.00913695	0	
0.0146761	-0.00810812	0	
0.00986307	-0.00881479	0	
0.00527643	-0.0107096	0	
0.00160464	-0.012348	0	
0.00395225	-0.0306432	0	
0.00936846	-0.045546	0	
0.0171538	-0.0537213	0	
0.0246123	-0.0537503	0	
0.0296768	-0.0475125	0	
0.0321747	-0.0382124	0	
0.0329945	-0.0281571	0	
0.0330527	-0.0183692	0	
0.0329197	-0.00904135	0	
0.0328527	-3.80202e-011	0	
0.0329197	0.00904135	0	
0.0330527	0.0183692	0	
0.0329945	0.0281571	0	
0.0321747	0.0382124	0	
0.0296768	0.0475125	0	
0.0246123	0.0537503	0	
0.0171538	0.0537213	0	
0.00936846	0.045546	0	
0.00395225	0.0306432	0	
0.00160464	0.012348	0	
0.00527643	0.0107096	0	
0.00986307	0.00881479	0	
0.0146761	0.00810812	0	
0.0179448	0.00913695	0	
0.0184167	0.0109645	0	
0.0164242	0.0125218	0	
0.0129524	0.0134677	0	
0.0088083	0.0139217	0	
0.00443202	0.0140974	0	
-1.87154e-011	0.0141401	0	
-0.00443202	0.0140974	0	
-0.0088083	0.0139217	0	
-0.0129524	0.0134677	0	
-0.0164242	0.0125218	0	
-0.0184167	0.0109645	0	
-0.0179448	0.00913695	0	
-0.0146761	0.00810812	0	
-0.00986307	0.00881479	0	
-0.00527643	0.0107096	0	
4.42515e-017	-2.44628e-017	0	
-3.47045e-011	0.0210907	0	
-6.68015e-011	0.0393608	0	
-9.3905e-011	0.0514727	0	
-1.12218e-010	0.0549086	0	
-1.185e-010	0.0504514	0	
-1.11954e-010	0.0413026	0	
-9.4065e-011	0.0305576	0	
-6.74898e-011	0.0198916	0	
-3.51667e-011	0.00976033	0	
-1.61589e-017	-3.99384e-018	0	
3.51667e-011	-0.00976033	0	
6.74899e-011	-0.0198916	0	
9.4065e-011	-0.0305576	0	
1.11954e-010	-0.0413026	0	
1.185e-010	-0.0504514	0	
1.12218e-010	-0.0549086	0	
9.39052e-011	-0.0514727	0	
6.68015e-011	-0.0393608	0	
3.47045e-011	-0.0210907	0	
4.42515e-017	-2.44628e-017	0	
-0.00258472	1.96946e-011	0	
-0.00675491	3.5555e-011	0	
-0.0119003	4.61951e-011	0	
-0.016285	5.19091e-011	0	
-0.0180919	5.30288e-011	0	
-0.0169317	4.94805e-011	0	
-0.0136888	4.14925e-011	0	
-0.00940939	2.98148e-011	0	
-0.00475207	1.55623e-011	0	
2.89339e-017	2.9827e-017	0	
0.00475207	-1.55622e-011	0	
0.00940939	-2.98149e-011	0	
0.0136888	-4.14926e-011	0	
0.0169317	-4.94806e-011	0	
0.0180919	-5.30289e-011	0	
0.016285	-5.19091e-011	0	
0.0119003	-4.61951e-011	0	
0.00675491	-3.55551e-011	0	
0.00258472	-1.96947e-011	0	
4.42515e-017	-2.44628e-017	0	
3.47045e-011	-0.0210907	0	
6.68015e-011	-0.0393608	0	
9.39052e-011	-0.0514727	0	
1.12218e-010	-0.0549086	0	
1.185e-010	-0.0504514	0	
1.11954e-010	-0.0413026	0	
9.4065e-011	-0.0305576	0	
6.74899e-011	-0.0198916	0	
3.51667e-011	-0.00976033	0	
-1.61589e-017	-3.99384e-018	0	
-3.51667e-011	0.00976033	0	
-6.74898e-011	0.0198916	0	
-9.4065e-011	0.0305576	0	
-1.11954e-010	0.0413026	0	
-1.185e-010	0.0504514	0	
-1.12218e-010	0.0549086	0	
-9.3905e-011	0.0514727	0	
-6.68015e-011	0.0393608	0	
-3.47045e-011	0.0210907	0	
4.42515e-017	-2.44628e-017	0	
0.00258472	-1.96947e-011	0	
0.00675491	-3.55551e-011	0	
0.0119003	-4.61951e-011	0	
0.016285	-5.19091e-011	0	
0.0180919	-5.30289e-011	0	
0.0169317	-4.94806e-011	0	
0.0136888	-4.14926e-011	0	
0.00940939	-2.98149e-011	0	
0.00475207	-1.55622e-011	0	
2.89339e-017	2.9827e-017	0	
-0.00475207	1.55623e-011	0	
-0.00940939	2.98148e-011	0	
-0.0136888	4.14925e-011	0	
-0.0169317	4.94805e-011	0	
-0.0180919	5.30288e-011	0	
-0.016285	5.19091e-011	0	
-0.0119003	4.61951e-011	0	
-0.00675491	3.5555e-011	0	
-0.00258472	1.96946e-011	0	
VECTORS chi1 float
-0.0389976	0.0600188	0	
-0.0453677	0.03716	0	
-0.0536201	0.0262865	0	
-0.0599701	0.0200919	0	
-0.0642697	0.0161823	0	
-0.0669647	0.0132567	0	
-0.0685595	0.0106629	0	
-0.0694516	0.00810406	0	
-0.0699172	0.00547416	0	
-0.0701323	0.0027619	0	
-0.0701937	7.91253e-011	0	
-0.0701323	-0.0027619	0	
-0.0699172	-0.00547416	0	
-0.0694516	-0.00810406	0	
-0.0685595	-0.0106629	0	
-0.0669647	-0.0132567	0	
-0.0642697	-0.0161823	0	
-0.0599701	-0.0200919	0	
-0.0536201	-0.0262865	0	
-0.0453677	-0.03716	0	
-0.0389976	-0.0600188	0	
-0.0319737	-0.10746	0	
-0.0281777	-0.134517	0	
-0.0271744	-0.149666	0	
-0.0261103	-0.157448	0	
-0.0240059	-0.161056	0	
-0.0206886	-0.162466	0	
-0.0163496	-0.162827	0	
-0.0112762	-0.162775	0	
-0.00574604	-0.162641	0	
1.62997e-010	-0.162581	0	
0.00574604	-0.162641	0	
0.0112762	-0.162775	0	
0.0163496	-0.162827	0	
0.0206886	-0.162466	0	
0.0240059	-0.161056	0	
0.0261103	-0.157448	0	
0.0271744	-0.149666	0	
0.0281777	-0.134517	0	
0.0319737	-0.10746	0	
0.0389976	-0.0600188	0	
0.0453677	-0.03716	0	
0.0536201	-0.0262865	0	
0.0599701	-0.0200919	0	
0.0642697	-0.0161823	0	
0.0669647	-0.0132567	0	
0.0685595	-0.0106629	0	
0.0694516	-0.00810406	0	
0.0699172	-0.00547416	0	
0.0701323	-0.0027619	0	
0.0701937	-7.91251e-011	0	
0.0701323	0.0027619	0	
0.0699172	0.00547416	0	
0.0694516	0.00810406	0	
0.0685595	0.0106629	0	
0.0669647	0.0132567	0	
0.0642697	0.0161823	0	
0.0599701	0.0200919	0	
0.0536201	0.0262865	0	
0.0453677	0.03716	0	
0.0389976	0.0600188	0	
0.0319737	0.10746	0	
0.0281777	0.134517	0	
0.0271744	0.149666	0	
0.0261103	0.157448	0	
0.0240059	0.161056	0	
0.0206886	0.162466	0	
0.0163496	0.162827	0	
0.0112762	0.162775	0	
0.00574604	0.162641	0	
-1.62997e-010	0.162581	0	
-0.00574604	0.162641	0	
-0.0112762	0.162775	0	
-0.0163496	0.162827	0	
-0.0206886	0.162466	0	
-0.0240059	0.161056	0	
-0.0261103	0.157448	0	
-0.0271744	0.149666	0	
-0.0281777	0.134517	0	
-0.0319737	0.10746	0	
-0.0338859	0.0276741	0	
-0.0303869	0.0333228	0	
-0.0354452	0.0298414	0	
-0.0425569	0.0247967	0	
-0.0482725	0.0201218	0	
-0.0520344	0.0161597	0	
-0.0542331	0.0126931	0	
-0.055406	0.009464	0	
-0.0559769	0.00630984	0	
-0.0562208	0.00315997	0	
-0.0562865	6.79202e-011	0	
-0.0562208	-0.00315997	0	
-0.0559769	-0.00630984	0	
-0.055406	-0.009464	0	
-0.0542331	-0.0126931	0	
-0.0520344	-0.0161597	0	
-0.0482725	-0.0201218	0	
-0.0425569	-0.0247967	0	
-0.0354452	-0.0298414	0	
-0.0303869	-0.0333228	0	
-0.0338859	-0.0276741	0	
-0.0450677	-0.0578388	0	
-0.0440779	-0.0901789	0	
-0.0391192	-0.11138	0	
-0.0340437	-0.12305	0	
-0.0290826	-0.128481	0	
-0.0239334	-0.1305	0	
-0.0184072	-0.130924	0	
-0.0125031	-0.130763	0	
-0.00632213	-0.13052	0	
1.39191e-010	-0.130419	0	
0.00632213	-0.130521	0	
0.0125031	-0.130763	0	
0.0184072	-0.130924	0	
0.0239334	-0.1305	0	
0.0290826	-0.128481	0	
0.0340437	-0.12305	0	
0.0391192	-0.11138	0	
0.0440779	-0.0901789	0	
0.0450677	-0.0578388	0	
0.0338859	-0.0276741	0	
0.0303869	-0.0333228	0	
0.0354452	-0.0298414	0	
0.0425569	-0.0247967	0	
0.0482725	-0.0201218	0	
0.0520344	-0.0161597	0	
0.0542331	-0.0126931	0	
0.055406	-0.009464	0	