# vtk DataFile Version 4.1
vtk output
ASCII
DATASET UNSTRUCTURED_GRID

POINTS	6	float
0	0	0	
1	0	0	
2	0	0	
2	1	0	
1	1	0	
0	1	0	

CELLS 4	16
3	0	1	4	
3	1	2	3	
3	3	4	1	
3	4	5	0	

CELL_TYPES	4
5
5
5
5

POINT_DATA	6
VECTORS u float
-1.10053e-23	-5.50265e-24	0	
-0.00099518	-0.00307548	0	
-0.00117092	-0.00666746	0	
0.00154235	-0.0068432	0	
0.00137846	-0.00287208	0	
1.10053e-23	-0.00109773	0	
