# vtk DataFile Version 4.1
vtk output
ASCII
DATASET UNSTRUCTURED_GRID

POINTS	49	float
0	0	0	
1	0	0	
2	0	0	
3	0	0	
0	1	0	
1	1	0	
2	1	0	
3	1	0	
0	2	0	
1	2	0	
2	2	0	
3	2	0	
0	3	0	
1	3	0	
2	3	0	
3	3	0	
0.5	0	0	
1.5	0	0	
2.5	0	0	
0	0.5	0	
0.5	0.5	0	
1	0.5	0	
1.5	0.5	0	
2	0.5	0	
2.5	0.5	0	
3	0.5	0	
0.5	1	0	
1.5	1	0	
2.5	1	0	
0	1.5	0	
0.5	1.5	0	
1	1.5	0	
1.5	1.5	0	
2	1.5	0	
2.5	1.5	0	
3	1.5	0	
0.5	2	0	
1.5	2	0	
2.5	2	0	
0	2.5	0	
0.5	2.5	0	
1	2.5	0	
1.5	2.5	0	
2	2.5	0	
2.5	2.5	0	
3	2.5	0	
0.5	3	0	
1.5	3	0	
2.5	3	0	

CELLS 18	72
3	0	1	4	
3	1	5	4	
3	1	2	5	
3	2	6	5	
3	2	3	6	
3	3	7	6	
3	4	5	8	
3	5	9	8	
3	5	6	9	
3	6	10	9	
3	6	7	10	
3	7	11	10	
3	8	9	12	
3	9	13	12	
3	9	10	13	
3	10	14	13	
3	10	11	14	
3	11	15	14	

CELL_TYPES	18
5
5
5
5
5
5
5
5
5
5
5
5
5
5
5
5
5
5

POINT_DATA	49
VECTORS u float
0	0	0	
0	0	0	
0	0	0	
0	0	0	
0.37085	0.000368727	0	
0.370969	0.000213918	0	
0.370829	0.000199102	0	
0.371054	0.000291829	0	
0.704325	0.000296304	0	
0.704102	0.000200954	0	
0.704242	0.000214084	0	
0.70412	0.000368178	0	
1	0	0	
1	0	0	
1	0	0	
1	0	0	
0	0	0	
0	0	0	
0	0	0	
0.194397	0.00016735	0	
0.194042	0.000186249	0	
0.193899	0.000114994	0	
0.193821	7.02165e-005	0	
0.193677	6.47183e-005	0	
0.19355	0.000151477	0	
0.193286	0.000244206	0	
0.371087	0.000231454	0	
0.371057	0.000141929	0	
0.371002	0.000257771	0	
0.540358	0.000268036	0	
0.540336	0.000254902	0	
0.540308	0.000205994	0	
0.540335	0.00020378	0	
0.540307	0.000204369	0	
0.540334	0.000252457	0	
0.540353	0.000265266	0	
0.704275	0.000260571	0	
0.704331	0.000142366	0	
0.70436	0.000230477	0	
0.85989	0.000246262	0	
0.860156	0.000153034	0	
0.860284	6.5633e-005	0	
0.86043	7.05365e-005	0	
0.860507	0.000115226	0	
0.86065	0.000186419	0	
0.861006	0.00016731	0	
1	0	0	
1	0	0	
1	0	0	
SCALARS p float
LOOKUP_TABLE default
-0.112709
0.0817251
-0.026068
0.0296459
0.0643906
0.0663279
-0.00959072
-0.130978
0.0875654
0.0152155
0.0464166
0.0357728
-0.273451
-0.0525105
-0.0126662
-0.374162
0
0
0
0
0
0
0
0
0
0
0
0
0
0
0
0
0
0
0
0
0
0
0
0
0
0
0
0
0
0
0
0
0
