# vtk DataFile Version 4.1
vtk output
ASCII
DATASET UNSTRUCTURED_GRID

POINTS	49	float
0	0	0	
1	0	0	
2	0	0	
3	0	0	
0	1	0	
1	1	0	
2	1	0	
3	1	0	
0	2	0	
1	2	0	
2	2	0	
3	2	0	
0	3	0	
1	3	0	
2	3	0	
3	3	0	
0.5	0	0	
1.5	0	0	
2.5	0	0	
0	0.5	0	
0.5	0.5	0	
1	0.5	0	
1.5	0.5	0	
2	0.5	0	
2.5	0.5	0	
3	0.5	0	
0.5	1	0	
1.5	1	0	
2.5	1	0	
0	1.5	0	
0.5	1.5	0	
1	1.5	0	
1.5	1.5	0	
2	1.5	0	
2.5	1.5	0	
3	1.5	0	
0.5	2	0	
1.5	2	0	
2.5	2	0	
0	2.5	0	
0.5	2.5	0	
1	2.5	0	
1.5	2.5	0	
2	2.5	0	
2.5	2.5	0	
3	2.5	0	
0.5	3	0	
1.5	3	0	
2.5	3	0	

CELLS 18	72
3	0	1	4	
3	1	5	4	
3	1	2	5	
3	2	6	5	
3	2	3	6	
3	3	7	6	
3	4	5	8	
3	5	9	8	
3	5	6	9	
3	6	10	9	
3	6	7	10	
3	7	11	10	
3	8	9	12	
3	9	13	12	
3	9	10	13	
3	10	14	13	
3	10	11	14	
3	11	15	14	

CELL_TYPES	18
5
5
5
5
5
5
5
5
5
5
5
5
5
5
5
5
5
5

POINT_DATA	49
VECTORS u float
-9.75821e-011	-9.35506e-011	1	
4.23528e-011	3.12842e-011	-0.539696	
3.63448e-011	-1.17741e-011	0.201107	
3.63096e-011	1.56772e-012	1.8348e-012	
0.188939	-0.00643808	1	
0.370626	-0.0183002	-0.252854	
0.321828	0.00428365	0.0539704	
0.340009	0.00548009	1.2801e-012	
0.513485	-0.0280175	1	
0.708676	-0.0104612	-0.263039	
0.657727	-0.000529828	0.0518317	
0.669471	0.0036957	5.68131e-013	
1	5.26254e-011	1	
1	-2.11149e-011	-0.147116	
1	1.27105e-012	-0.00269956	
1	7.70029e-013	-1.58059e-013	
1.26702e-010	-2.18548e-011	0	
2.19058e-011	5.02259e-012	0	
6.53456e-011	-3.70959e-012	0	
0.0579195	0.018146	0	
0.202401	-0.0113645	0	
0.192261	-0.022952	0	
0.149989	-0.00629395	0	
0.157947	0.00792404	0	
0.171346	0.00702808	0	
0.172656	0.00475156	0	
0.361977	-0.0183674	0	
0.324352	-0.00362558	0	
0.335206	0.0052284	0	
0.351398	-0.0174116	0	
0.525872	-0.0184967	0	
0.540079	-0.0127068	0	
0.494547	-0.00497209	0	
0.489638	0.000781326	0	
0.500643	0.00336147	0	
0.504449	0.0040387	0	
0.690802	-0.0248003	0	
0.663751	-0.00565352	0	
0.666507	0.00311778	0	
0.714022	-0.0247862	0	
0.858849	-0.0300958	0	
0.864518	-0.0131818	0	
0.830974	-0.00194783	0	
0.828332	0.00201227	0	
0.832778	0.002295	0	
0.834018	0.00179021	0	
1	4.52349e-011	0	
1	-1.10708e-011	0	
1	1.09834e-012	0	
