# vtk DataFile Version 4.1
vtk output
ASCII
DATASET UNSTRUCTURED_GRID

POINTS	49	float
0	0	0	
1	0	0	
2	0	0	
3	0	0	
0	1	0	
1	1	0	
2	1	0	
3	1	0	
0	2	0	
1	2	0	
2	2	0	
3	2	0	
0	3	0	
1	3	0	
2	3	0	
3	3	0	
0.5	0	0	
1.5	0	0	
2.5	0	0	
0	0.5	0	
0.5	0.5	0	
1	0.5	0	
1.5	0.5	0	
2	0.5	0	
2.5	0.5	0	
3	0.5	0	
0.5	1	0	
1.5	1	0	
2.5	1	0	
0	1.5	0	
0.5	1.5	0	
1	1.5	0	
1.5	1.5	0	
2	1.5	0	
2.5	1.5	0	
3	1.5	0	
0.5	2	0	
1.5	2	0	
2.5	2	0	
0	2.5	0	
0.5	2.5	0	
1	2.5	0	
1.5	2.5	0	
2	2.5	0	
2.5	2.5	0	
3	2.5	0	
0.5	3	0	
1.5	3	0	
2.5	3	0	

CELLS 18	72
3	0	1	4	
3	1	5	4	
3	1	2	5	
3	2	6	5	
3	2	3	6	
3	3	7	6	
3	4	5	8	
3	5	9	8	
3	5	6	9	
3	6	10	9	
3	6	7	10	
3	7	11	10	
3	8	9	12	
3	9	13	12	
3	9	10	13	
3	10	14	13	
3	10	11	14	
3	11	15	14	

CELL_TYPES	18
5
5
5
5
5
5
5
5
5
5
5
5
5
5
5
5
5
5

POINT_DATA	49
VECTORS u float
0	0	0	
0	0	0	
0	0	0	
0	0	0	
0.444444	-1.9836e-011	0	
0.444444	-2.72958e-011	0	
0.444444	3.58876e-011	0	
0.444444	3.495e-011	0	
0.777778	-2.40213e-011	0	
0.777778	-1.61888e-011	0	
0.777778	5.01447e-012	0	
0.777778	2.04462e-011	0	
1	0	0	
1	0	0	
1	0	0	
1	0	0	
0	0	0	
0	0	0	
0	0	0	
0.236111	-1.20745e-011	0	
0.236111	-1.08378e-011	0	
0.236111	-9.14192e-012	0	
0.236111	-8.25578e-013	0	
0.236111	1.68292e-011	0	
0.236111	2.05838e-011	0	
0.236111	2.13184e-011	0	
0.444444	-1.97135e-011	0	
0.444444	7.09908e-013	0	
0.444444	3.72774e-011	0	
0.625	-4.26867e-011	0	
0.625	-3.32744e-011	0	
0.625	-2.48497e-011	0	
0.625	1.39994e-012	0	
0.625	2.23602e-011	0	
0.625	2.71065e-011	0	
0.625	2.80856e-011	0	
0.777778	-2.14949e-011	0	
0.777778	-4.13611e-012	0	
0.777778	1.8844e-011	0	
0.902778	-1.46825e-011	0	
0.902778	-1.18054e-011	0	
0.902778	-6.18309e-012	0	
0.902778	-3.53287e-012	0	
0.902778	6.59532e-012	0	
0.902778	5.08683e-012	0	
0.902778	1.99216e-011	0	
1	0	0	
1	0	0	
1	0	0	
SCALARS p float
LOOKUP_TABLE default
0.333333
0.222222
0.111111
-1.45787e-011
0.333333
0.222222
0.111111
-1.66744e-011
0.333333
0.222222
0.111111
-9.9533e-012
0.333333
0.222222
0.111111
2.18691e-012
0
0
0
0
0
0
0
0
0
0
0
0
0
0
0
0
0
0
0
0
0
0
0
0
0
0
0
0
0
0
0
0
0
