# vtk DataFile Version 4.1
vtk output
ASCII
DATASET UNSTRUCTURED_GRID

POINTS	49	float
0	0	0	
1	0	0	
2	0	0	
3	0	0	
0	1	0	
1	1	0	
2	1	0	
3	1	0	
0	2	0	
1	2	0	
2	2	0	
3	2	0	
0	3	0	
1	3	0	
2	3	0	
3	3	0	
0.5	0	0	
1.5	0	0	
2.5	0	0	
0	0.5	0	
0.5	0.5	0	
1	0.5	0	
1.5	0.5	0	
2	0.5	0	
2.5	0.5	0	
3	0.5	0	
0.5	1	0	
1.5	1	0	
2.5	1	0	
0	1.5	0	
0.5	1.5	0	
1	1.5	0	
1.5	1.5	0	
2	1.5	0	
2.5	1.5	0	
3	1.5	0	
0.5	2	0	
1.5	2	0	
2.5	2	0	
0	2.5	0	
0.5	2.5	0	
1	2.5	0	
1.5	2.5	0	
2	2.5	0	
2.5	2.5	0	
3	2.5	0	
0.5	3	0	
1.5	3	0	
2.5	3	0	

CELLS 18	72
3	0	1	4	
3	1	5	4	
3	1	2	5	
3	2	6	5	
3	2	3	6	
3	3	7	6	
3	4	5	8	
3	5	9	8	
3	5	6	9	
3	6	10	9	
3	6	7	10	
3	7	11	10	
3	8	9	12	
3	9	13	12	
3	9	10	13	
3	10	14	13	
3	10	11	14	
3	11	15	14	

CELL_TYPES	18
5
5
5
5
5
5
5
5
5
5
5
5
5
5
5
5
5
5

POINT_DATA	49
VECTORS u float
-1.85185e-011	-1.11111e-010	1	
9.25926e-011	-7.40741e-011	0.666667	
9.25926e-011	-3.7037e-011	0.333333	
9.25926e-011	-2.24057e-020	1.42298e-010	
0.666667	-8.0399e-011	1	
0.666667	-4.67022e-011	0.666667	
0.666667	-3.3377e-011	0.333333	
0.666667	-1.19823e-011	-2.2906e-011	
1	9.50328e-011	1	
1	4.02579e-011	0.666667	
1	8.61759e-012	0.333333	
1	-8.26336e-012	2.04886e-011	
1	1.11111e-010	1	
1	7.40741e-011	0.666667	
1	3.7037e-011	0.333333	
1	2.77513e-020	1.67826e-010	
1.38889e-010	-1.38889e-010	0	
1.38889e-010	-8.33333e-011	0	
1.38889e-010	-2.77778e-011	0	
0.375	-1.90249e-010	0	
0.375	-1.23885e-010	0	
0.375	-6.80093e-011	0	
0.375	-5.54503e-011	0	
0.375	-4.34575e-011	0	
0.375	-1.65961e-011	0	
0.375	-6.25747e-012	0	
0.666667	-5.84282e-011	0	
0.666667	-4.23815e-011	0	
0.666667	-1.62236e-011	0	
0.875	7.92261e-012	0	
0.875	2.90167e-012	0	
0.875	-8.92439e-012	0	
0.875	-1.44215e-011	0	
0.875	-1.38819e-011	0	
0.875	-1.15793e-011	0	
0.875	-1.43134e-011	0	
1	7.88853e-011	0	
1	2.2804e-011	0	
1	2.06489e-012	0	
1.04167	1.37325e-010	0	
1.04167	1.35351e-010	0	
1.04167	7.46411e-011	0	
1.04167	5.59958e-011	0	
1.04167	3.13615e-011	0	
1.04167	1.41039e-011	0	
1.04167	-6.90065e-012	0	
1	1.38889e-010	0	
1	8.33333e-011	0	
1	2.77778e-011	0	
