# vtk DataFile Version 4.1
vtk output
ASCII
DATASET UNSTRUCTURED_GRID

POINTS	1836	float
0	0	0	
1	0	0	
2	0	0	
3	0	0	
4	0	0	
5	0	0	
6	0	0	
7	0	0	
8	0	0	
9	0	0	
10	0	0	
11	0	0	
12	0	0	
13	0	0	
14	0	0	
15	0	0	
16	0	0	
17	0	0	
18	0	0	
19	0	0	
20	0	0	
21	0	0	
22	0	0	
23	0	0	
24	0	0	
25	0	0	
26	0	0	
27	0	0	
28	0	0	
29	0	0	
30	0	0	
31	0	0	
32	0	0	
33	0	0	
34	0	0	
35	0	0	
36	0	0	
37	0	0	
38	0	0	
39	0	0	
40	0	0	
41	0	0	
42	0	0	
43	0	0	
44	0	0	
45	0	0	
46	0	0	
47	0	0	
48	0	0	
49	0	0	
50	0	0	
0	1	0	
1	1	0	
2	1	0	
3	1	0	
4	1	0	
5	1	0	
6	1	0	
7	1	0	
8	1	0	
9	1	0	
10	1	0	
11	1	0	
12	1	0	
13	1	0	
14	1	0	
15	1	0	
16	1	0	
17	1	0	
18	1	0	
19	1	0	
20	1	0	
21	1	0	
22	1	0	
23	1	0	
24	1	0	
25	1	0	
26	1	0	
27	1	0	
28	1	0	
29	1	0	
30	1	0	
31	1	0	
32	1	0	
33	1	0	
34	1	0	
35	1	0	
36	1	0	
37	1	0	
38	1	0	
39	1	0	
40	1	0	
41	1	0	
42	1	0	
43	1	0	
44	1	0	
45	1	0	
46	1	0	
47	1	0	
48	1	0	
49	1	0	
50	1	0	
0	2	0	
1	2	0	
2	2	0	
3	2	0	
4	2	0	
5	2	0	
6	2	0	
7	2	0	
8	2	0	
9	2	0	
10	2	0	
11	2	0	
12	2	0	
13	2	0	
14	2	0	
15	2	0	
16	2	0	
17	2	0	
18	2	0	
19	2	0	
20	2	0	
21	2	0	
22	2	0	
23	2	0	
24	2	0	
25	2	0	
26	2	0	
27	2	0	
28	2	0	
29	2	0	
30	2	0	
31	2	0	
32	2	0	
33	2	0	
34	2	0	
35	2	0	
36	2	0	
37	2	0	
38	2	0	
39	2	0	
40	2	0	
41	2	0	
42	2	0	
43	2	0	
44	2	0	
45	2	0	
46	2	0	
47	2	0	
48	2	0	
49	2	0	
50	2	0	
0	3	0	
1	3	0	
2	3	0	
3	3	0	
4	3	0	
5	3	0	
6	3	0	
7	3	0	
8	3	0	
9	3	0	
10	3	0	
11	3	0	
12	3	0	
13	3	0	
14	3	0	
15	3	0	
16	3	0	
17	3	0	
18	3	0	
19	3	0	
20	3	0	
21	3	0	
22	3	0	
23	3	0	
24	3	0	
25	3	0	
26	3	0	
27	3	0	
28	3	0	
29	3	0	
30	3	0	
31	3	0	
32	3	0	
33	3	0	
34	3	0	
35	3	0	
36	3	0	
37	3	0	
38	3	0	
39	3	0	
40	3	0	
41	3	0	
42	3	0	
43	3	0	
44	3	0	
45	3	0	
46	3	0	
47	3	0	
48	3	0	
49	3	0	
50	3	0	
0	4	0	
1	4	0	
2	4	0	
3	4	0	
4	4	0	
5	4	0	
6	4	0	
7	4	0	
8	4	0	
9	4	0	
10	4	0	
11	4	0	
12	4	0	
13	4	0	
14	4	0	
15	4	0	
16	4	0	
17	4	0	
18	4	0	
19	4	0	
20	4	0	
21	4	0	
22	4	0	
23	4	0	
24	4	0	
25	4	0	
26	4	0	
27	4	0	
28	4	0	
29	4	0	
30	4	0	
31	4	0	
32	4	0	
33	4	0	
34	4	0	
35	4	0	
36	4	0	
37	4	0	
38	4	0	
39	4	0	
40	4	0	
41	4	0	
42	4	0	
43	4	0	
44	4	0	
45	4	0	
46	4	0	
47	4	0	
48	4	0	
49	4	0	
50	4	0	
0	5	0	
1	5	0	
2	5	0	
3	5	0	
4	5	0	
5	5	0	
6	5	0	
7	5	0	
8	5	0	
9	5	0	
10	5	0	
11	5	0	
12	5	0	
13	5	0	
14	5	0	
15	5	0	
16	5	0	
17	5	0	
18	5	0	
19	5	0	
20	5	0	
21	5	0	
22	5	0	
23	5	0	
24	5	0	
25	5	0	
26	5	0	
27	5	0	
28	5	0	
29	5	0	
30	5	0	
31	5	0	
32	5	0	
33	5	0	
34	5	0	
35	5	0	
36	5	0	
37	5	0	
38	5	0	
39	5	0	
40	5	0	
41	5	0	
42	5	0	
43	5	0	
44	5	0	
45	5	0	
46	5	0	
47	5	0	
48	5	0	
49	5	0	
50	5	0	
0	0	1	
1	0	1	
2	0	1	
3	0	1	
4	0	1	
5	0	1	
6	0	1	
7	0	1	
8	0	1	
9	0	1	
10	0	1	
11	0	1	
12	0	1	
13	0	1	
14	0	1	
15	0	1	
16	0	1	
17	0	1	
18	0	1	
19	0	1	
20	0	1	
21	0	1	
22	0	1	
23	0	1	
24	0	1	
25	0	1	
26	0	1	
27	0	1	
28	0	1	
29	0	1	
30	0	1	
31	0	1	
32	0	1	
33	0	1	
34	0	1	
35	0	1	
36	0	1	
37	0	1	
38	0	1	
39	0	1	
40	0	1	
41	0	1	
42	0	1	
43	0	1	
44	0	1	
45	0	1	
46	0	1	
47	0	1	
48	0	1	
49	0	1	
50	0	1	
0	1	1	
1	1	1	
2	1	1	
3	1	1	
4	1	1	
5	1	1	
6	1	1	
7	1	1	
8	1	1	
9	1	1	
10	1	1	
11	1	1	
12	1	1	
13	1	1	
14	1	1	
15	1	1	
16	1	1	
17	1	1	
18	1	1	
19	1	1	
20	1	1	
21	1	1	
22	1	1	
23	1	1	
24	1	1	
25	1	1	
26	1	1	
27	1	1	
28	1	1	
29	1	1	
30	1	1	
31	1	1	
32	1	1	
33	1	1	
34	1	1	
35	1	1	
36	1	1	
37	1	1	
38	1	1	
39	1	1	
40	1	1	
41	1	1	
42	1	1	
43	1	1	
44	1	1	
45	1	1	
46	1	1	
47	1	1	
48	1	1	
49	1	1	
50	1	1	
0	2	1	
1	2	1	
2	2	1	
3	2	1	
4	2	1	
5	2	1	
6	2	1	
7	2	1	
8	2	1	
9	2	1	
10	2	1	
11	2	1	
12	2	1	
13	2	1	
14	2	1	
15	2	1	
16	2	1	
17	2	1	
18	2	1	
19	2	1	
20	2	1	
21	2	1	
22	2	1	
23	2	1	
24	2	1	
25	2	1	
26	2	1	
27	2	1	
28	2	1	
29	2	1	
30	2	1	
31	2	1	
32	2	1	
33	2	1	
34	2	1	
35	2	1	
36	2	1	
37	2	1	
38	2	1	
39	2	1	
40	2	1	
41	2	1	
42	2	1	
43	2	1	
44	2	1	
45	2	1	
46	2	1	
47	2	1	
48	2	1	
49	2	1	
50	2	1	
0	3	1	
1	3	1	
2	3	1	
3	3	1	
4	3	1	
5	3	1	
6	3	1	
7	3	1	
8	3	1	
9	3	1	
10	3	1	
11	3	1	
12	3	1	
13	3	1	
14	3	1	
15	3	1	
16	3	1	
17	3	1	
18	3	1	
19	3	1	
20	3	1	
21	3	1	
22	3	1	
23	3	1	
24	3	1	
25	3	1	
26	3	1	
27	3	1	
28	3	1	
29	3	1	
30	3	1	
31	3	1	
32	3	1	
33	3	1	
34	3	1	
35	3	1	
36	3	1	
37	3	1	
38	3	1	
39	3	1	
40	3	1	
41	3	1	
42	3	1	
43	3	1	
44	3	1	
45	3	1	
46	3	1	
47	3	1	
48	3	1	
49	3	1	
50	3	1	
0	4	1	
1	4	1	
2	4	1	
3	4	1	
4	4	1	
5	4	1	
6	4	1	
7	4	1	
8	4	1	
9	4	1	
10	4	1	
11	4	1	
12	4	1	
13	4	1	
14	4	1	
15	4	1	
16	4	1	
17	4	1	
18	4	1	
19	4	1	
20	4	1	
21	4	1	
22	4	1	
23	4	1	
24	4	1	
25	4	1	
26	4	1	
27	4	1	
28	4	1	
29	4	1	
30	4	1	
31	4	1	
32	4	1	
33	4	1	
34	4	1	
35	4	1	
36	4	1	
37	4	1	
38	4	1	
39	4	1	
40	4	1	
41	4	1	
42	4	1	
43	4	1	
44	4	1	
45	4	1	
46	4	1	
47	4	1	
48	4	1	
49	4	1	
50	4	1	
0	5	1	
1	5	1	
2	5	1	
3	5	1	
4	5	1	
5	5	1	
6	5	1	
7	5	1	
8	5	1	
9	5	1	
10	5	1	
11	5	1	
12	5	1	
13	5	1	
14	5	1	
15	5	1	
16	5	1	
17	5	1	
18	5	1	
19	5	1	
20	5	1	
21	5	1	
22	5	1	
23	5	1	
24	5	1	
25	5	1	
26	5	1	
27	5	1	
28	5	1	
29	5	1	
30	5	1	
31	5	1	
32	5	1	
33	5	1	
34	5	1	
35	5	1	
36	5	1	
37	5	1	
38	5	1	
39	5	1	
40	5	1	
41	5	1	
42	5	1	
43	5	1	
44	5	1	
45	5	1	
46	5	1	
47	5	1	
48	5	1	
49	5	1	
50	5	1	
0	0	2	
1	0	2	
2	0	2	
3	0	2	
4	0	2	
5	0	2	
6	0	2	
7	0	2	
8	0	2	
9	0	2	
10	0	2	
11	0	2	
12	0	2	
13	0	2	
14	0	2	
15	0	2	
16	0	2	
17	0	2	
18	0	2	
19	0	2	
20	0	2	
21	0	2	
22	0	2	
23	0	2	
24	0	2	
25	0	2	
26	0	2	
27	0	2	
28	0	2	
29	0	2	
30	0	2	
31	0	2	
32	0	2	
33	0	2	
34	0	2	
35	0	2	
36	0	2	
37	0	2	
38	0	2	
39	0	2	
40	0	2	
41	0	2	
42	0	2	
43	0	2	
44	0	2	
45	0	2	
46	0	2	
47	0	2	
48	0	2	
49	0	2	
50	0	2	
0	1	2	
1	1	2	
2	1	2	
3	1	2	
4	1	2	
5	1	2	
6	1	2	
7	1	2	
8	1	2	
9	1	2	
10	1	2	
11	1	2	
12	1	2	
13	1	2	
14	1	2	
15	1	2	
16	1	2	
17	1	2	
18	1	2	
19	1	2	
20	1	2	
21	1	2	
22	1	2	
23	1	2	
24	1	2	
25	1	2	
26	1	2	
27	1	2	
28	1	2	
29	1	2	
30	1	2	
31	1	2	
32	1	2	
33	1	2	
34	1	2	
35	1	2	
36	1	2	
37	1	2	
38	1	2	
39	1	2	
40	1	2	
41	1	2	
42	1	2	
43	1	2	
44	1	2	
45	1	2	
46	1	2	
47	1	2	
48	1	2	
49	1	2	
50	1	2	
0	2	2	
1	2	2	
2	2	2	
3	2	2	
4	2	2	
5	2	2	
6	2	2	
7	2	2	
8	2	2	
9	2	2	
10	2	2	
11	2	2	
12	2	2	
13	2	2	
14	2	2	
15	2	2	
16	2	2	
17	2	2	
18	2	2	
19	2	2	
20	2	2	
21	2	2	
22	2	2	
23	2	2	
24	2	2	
25	2	2	
26	2	2	
27	2	2	
28	2	2	
29	2	2	
30	2	2	
31	2	2	
32	2	2	
33	2	2	
34	2	2	
35	2	2	
36	2	2	
37	2	2	
38	2	2	
39	2	2	
40	2	2	
41	2	2	
42	2	2	
43	2	2	
44	2	2	
45	2	2	
46	2	2	
47	2	2	
48	2	2	
49	2	2	
50	2	2	
0	3	2	
1	3	2	
2	3	2	
3	3	2	
4	3	2	
5	3	2	
6	3	2	
7	3	2	
8	3	2	
9	3	2	
10	3	2	
11	3	2	
12	3	2	
13	3	2	
14	3	2	
15	3	2	
16	3	2	
17	3	2	
18	3	2	
19	3	2	
20	3	2	
21	3	2	
22	3	2	
23	3	2	
24	3	2	
25	3	2	
26	3	2	
27	3	2	
28	3	2	
29	3	2	
30	3	2	
31	3	2	
32	3	2	
33	3	2	
34	3	2	
35	3	2	
36	3	2	
37	3	2	
38	3	2	
39	3	2	
40	3	2	
41	3	2	
42	3	2	
43	3	2	
44	3	2	
45	3	2	
46	3	2	
47	3	2	
48	3	2	
49	3	2	
50	3	2	
0	4	2	
1	4	2	
2	4	2	
3	4	2	
4	4	2	
5	4	2	
6	4	2	
7	4	2	
8	4	2	
9	4	2	
10	4	2	
11	4	2	
12	4	2	
13	4	2	
14	4	2	
15	4	2	
16	4	2	
17	4	2	
18	4	2	
19	4	2	
20	4	2	
21	4	2	
22	4	2	
23	4	2	
24	4	2	
25	4	2	
26	4	2	
27	4	2	
28	4	2	
29	4	2	
30	4	2	
31	4	2	
32	4	2	
33	4	2	
34	4	2	
35	4	2	
36	4	2	
37	4	2	
38	4	2	
39	4	2	
40	4	2	
41	4	2	
42	4	2	
43	4	2	
44	4	2	
45	4	2	
46	4	2	
47	4	2	
48	4	2	
49	4	2	
50	4	2	
0	5	2	
1	5	2	
2	5	2	
3	5	2	
4	5	2	
5	5	2	
6	5	2	
7	5	2	
8	5	2	
9	5	2	
10	5	2	
11	5	2	
12	5	2	
13	5	2	
14	5	2	
15	5	2	
16	5	2	
17	5	2	
18	5	2	
19	5	2	
20	5	2	
21	5	2	
22	5	2	
23	5	2	
24	5	2	
25	5	2	
26	5	2	
27	5	2	
28	5	2	
29	5	2	
30	5	2	
31	5	2	
32	5	2	
33	5	2	
34	5	2	
35	5	2	
36	5	2	
37	5	2	
38	5	2	
39	5	2	
40	5	2	
41	5	2	
42	5	2	
43	5	2	
44	5	2	
45	5	2	
46	5	2	
47	5	2	
48	5	2	
49	5	2	
50	5	2	
0	0	3	
1	0	3	
2	0	3	
3	0	3	
4	0	3	
5	0	3	
6	0	3	
7	0	3	
8	0	3	
9	0	3	
10	0	3	
11	0	3	
12	0	3	
13	0	3	
14	0	3	
15	0	3	
16	0	3	
17	0	3	
18	0	3	
19	0	3	
20	0	3	
21	0	3	
22	0	3	
23	0	3	
24	0	3	
25	0	3	
26	0	3	
27	0	3	
28	0	3	
29	0	3	
30	0	3	
31	0	3	
32	0	3	
33	0	3	
34	0	3	
35	0	3	
36	0	3	
37	0	3	
38	0	3	
39	0	3	
40	0	3	
41	0	3	
42	0	3	
43	0	3	
44	0	3	
45	0	3	
46	0	3	
47	0	3	
48	0	3	
49	0	3	
50	0	3	
0	1	3	
1	1	3	
2	1	3	
3	1	3	
4	1	3	
5	1	3	
6	1	3	
7	1	3	
8	1	3	
9	1	3	
10	1	3	
11	1	3	
12	1	3	
13	1	3	
14	1	3	
15	1	3	
16	1	3	
17	1	3	
18	1	3	
19	1	3	
20	1	3	
21	1	3	
22	1	3	
23	1	3	
24	1	3	
25	1	3	
26	1	3	
27	1	3	
28	1	3	
29	1	3	
30	1	3	
31	1	3	
32	1	3	
33	1	3	
34	1	3	
35	1	3	
36	1	3	
37	1	3	
38	1	3	
39	1	3	
40	1	3	
41	1	3	
42	1	3	
43	1	3	
44	1	3	
45	1	3	
46	1	3	
47	1	3	
48	1	3	
49	1	3	
50	1	3	
0	2	3	
1	2	3	
2	2	3	
3	2	3	
4	2	3	
5	2	3	
6	2	3	
7	2	3	
8	2	3	
9	2	3	
10	2	3	
11	2	3	
12	2	3	
13	2	3	
14	2	3	
15	2	3	
16	2	3	
17	2	3	
18	2	3	
19	2	3	
20	2	3	
21	2	3	
22	2	3	
23	2	3	
24	2	3	
25	2	3	
26	2	3	
27	2	3	
28	2	3	
29	2	3	
30	2	3	
31	2	3	
32	2	3	
33	2	3	
34	2	3	
35	2	3	
36	2	3	
37	2	3	
38	2	3	
39	2	3	
40	2	3	
41	2	3	
42	2	3	
43	2	3	
44	2	3	
45	2	3	
46	2	3	
47	2	3	
48	2	3	
49	2	3	
50	2	3	
0	3	3	
1	3	3	
2	3	3	
3	3	3	
4	3	3	
5	3	3	
6	3	3	
7	3	3	
8	3	3	
9	3	3	
10	3	3	
11	3	3	
12	3	3	
13	3	3	
14	3	3	
15	3	3	
16	3	3	
17	3	3	
18	3	3	
19	3	3	
20	3	3	
21	3	3	
22	3	3	
23	3	3	
24	3	3	
25	3	3	
26	3	3	
27	3	3	
28	3	3	
29	3	3	
30	3	3	
31	3	3	
32	3	3	
33	3	3	
34	3	3	
35	3	3	
36	3	3	
37	3	3	
38	3	3	
39	3	3	
40	3	3	
41	3	3	
42	3	3	
43	3	3	
44	3	3	
45	3	3	
46	3	3	
47	3	3	
48	3	3	
49	3	3	
50	3	3	
0	4	3	
1	4	3	
2	4	3	
3	4	3	
4	4	3	
5	4	3	
6	4	3	
7	4	3	
8	4	3	
9	4	3	
10	4	3	
11	4	3	
12	4	3	
13	4	3	
14	4	3	
15	4	3	
16	4	3	
17	4	3	
18	4	3	
19	4	3	
20	4	3	
21	4	3	
22	4	3	
23	4	3	
24	4	3	
25	4	3	
26	4	3	
27	4	3	
28	4	3	
29	4	3	
30	4	3	
31	4	3	
32	4	3	
33	4	3	
34	4	3	
35	4	3	
36	4	3	
37	4	3	
38	4	3	
39	4	3	
40	4	3	
41	4	3	
42	4	3	
43	4	3	
44	4	3	
45	4	3	
46	4	3	
47	4	3	
48	4	3	
49	4	3	
50	4	3	
0	5	3	
1	5	3	
2	5	3	
3	5	3	
4	5	3	
5	5	3	
6	5	3	
7	5	3	
8	5	3	
9	5	3	
10	5	3	
11	5	3	
12	5	3	
13	5	3	
14	5	3	
15	5	3	
16	5	3	
17	5	3	
18	5	3	
19	5	3	
20	5	3	
21	5	3	
22	5	3	
23	5	3	
24	5	3	
25	5	3	
26	5	3	
27	5	3	
28	5	3	
29	5	3	
30	5	3	
31	5	3	
32	5	3	
33	5	3	
34	5	3	
35	5	3	
36	5	3	
37	5	3	
38	5	3	
39	5	3	
40	5	3	
41	5	3	
42	5	3	
43	5	3	
44	5	3	
45	5	3	
46	5	3	
47	5	3	
48	5	3	
49	5	3	
50	5	3	
0	0	4	
1	0	4	
2	0	4	
3	0	4	
4	0	4	
5	0	4	
6	0	4	
7	0	4	
8	0	4	
9	0	4	
10	0	4	
11	0	4	
12	0	4	
13	0	4	
14	0	4	
15	0	4	
16	0	4	
17	0	4	
18	0	4	
19	0	4	
20	0	4	
21	0	4	
22	0	4	
23	0	4	
24	0	4	
25	0	4	
26	0	4	
27	0	4	
28	0	4	
29	0	4	
30	0	4	
31	0	4	
32	0	4	
33	0	4	
34	0	4	
35	0	4	
36	0	4	
37	0	4	
38	0	4	
39	0	4	
40	0	4	
41	0	4	
42	0	4	
43	0	4	
44	0	4	
45	0	4	
[...]
POINT_DATA	1836
VECTORS u float
4.41149e-10	-3.86403e-10	-4.05917e-10	
-0.874096	-1.43046	-4.07905	
-2.73955	-0.709836	-4.6697	
-4.58709	-0.619486	-4.95575	
-6.61132	-0.708759	-5.67495	
-9.06446	-0.323013	-5.73332	
-10.7214	-1.07234	-7.09983	
-11.9416	-1.79241	-8.72087	
-13.2046	-2.38798	-10.1656	
-14.4839	-2.86347	-11.5693	
-15.8601	-3.29815	-12.9066	
-17.2126	-3.73576	-14.172	
-18.6171	-4.3021	-15.4882	
-19.907	-4.82289	-16.7943	
-21.1392	-5.34133	-18.1347	
-22.3134	-5.81939	-19.4983	
-23.4472	-6.29353	-20.8653	
-24.5561	-6.77739	-22.1953	
-25.6288	-7.32606	-23.5227	
-26.6734	-7.93348	-24.8187	
-27.6184	-8.53035	-26.0572	
-28.4273	-9.24194	-27.1343	
-29.7972	-10.3555	-27.3326	
-31.2412	-11.5882	-28.3443	
-32.092	-11.0924	-30.5676	
-32.6025	-10.382	-32.4956	
-32.5871	-9.75078	-33.9095	
-32.0689	-9.50451	-34.2743	
-31.7649	-9.08387	-33.5867	
-32.4251	-8.92036	-32.2605	
-33.8088	-9.06972	-30.8912	
-35.6701	-8.86696	-29.6798	
-37.5045	-8.8553	-28.3803	
-39.6505	-8.49284	-27.4649	
-41.6179	-8.10433	-26.6333	
-43.7151	-7.81111	-25.8978	
-45.6202	-7.46564	-25.2392	
-47.4963	-7.09459	-24.7401	
-49.0107	-6.92592	-24.2518	
-50.2556	-6.67819	-23.4783	
-51.3791	-6.48095	-22.3957	
-52.4007	-6.35388	-21.1348	
-53.4007	-6.28368	-19.6688	
-54.4833	-6.27146	-18.1162	
-55.5865	-6.2964	-16.5129	
-56.8079	-6.19784	-14.9293	
-58.1713	-5.91549	-13.5517	
-59.5238	-5.45894	-12.3611	
-60.9592	-4.91015	-11.2729	
-62.3687	-4.45284	-10.27	
-63.7196	-4.1739	-9.29349	
1.64123e-09	1.98717e-10	-3.98245e-11	
-0.937574	-0.912911	-4.3399	
-2.46412	-0.54429	-4.29903	
-4.49044	-0.602296	-4.61578	
-6.59981	-0.553014	-5.09143	
-8.8118	-0.921983	-5.88119	
-10.0445	-1.63452	-7.45977	
-11.2967	-2.31249	-9.05895	
-12.5196	-2.88129	-10.5487	
-13.8091	-3.33754	-11.9604	
-15.2166	-3.78256	-13.2665	
-16.5744	-4.22154	-14.5179	
-17.9295	-4.75624	-15.8069	
-19.2011	-5.27378	-17.0974	
-20.4075	-5.76849	-18.4211	
-21.5708	-6.22718	-19.762	
-22.7206	-6.7114	-21.1081	
-23.8325	-7.20323	-22.438	
-24.9602	-7.73054	-23.7658	
-26.0597	-8.29685	-25.0711	
-27.123	-8.86804	-26.3808	
-28.0958	-9.56563	-27.7193	
-29.684	-10.3976	-28.8589	
-34.2542	-13.0823	-30.3247	
-32.6338	-11.4757	-31.5382	
-32.2291	-10.403	-32.6782	
-32.2902	-9.99293	-33.639	
-32.1396	-9.71542	-33.7593	
-32.2215	-9.55363	-33.3498	
-33.4364	-9.80299	-32.3417	
-34.7324	-9.72386	-31.2964	
-36.337	-9.53761	-30.097	
-38.1611	-9.2815	-28.985	
-40.2108	-8.88795	-28.0665	
-42.2835	-8.57088	-27.2044	
-44.3573	-8.18636	-26.5083	
-46.4017	-7.87745	-25.9015	
-48.3656	-7.61342	-25.3645	
-49.969	-7.4302	-24.6977	
-51.2699	-7.27651	-23.7726	
-52.4169	-7.00796	-22.5877	
-53.4692	-6.82422	-21.2445	
-54.5173	-6.69323	-19.7618	
-55.573	-6.62298	-18.1744	
-56.6291	-6.5567	-16.5727	
-57.7588	-6.40392	-15.0663	
-59.0405	-6.14957	-13.7342	
-60.3657	-5.7729	-12.6117	
-61.7896	-5.34694	-11.5925	
-63.2332	-4.97917	-10.6042	
-64.5689	-4.75299	-9.62923	
-7.46635e-11	2.82041e-10	3.77457e-10	
-0.375116	-0.371084	-3.70198	
-2.4009	-0.187148	-3.60548	
-4.32283	-0.84196	-4.44257	
-6.80054	-0.592916	-4.6213	
-8.22506	-1.4196	-6.0695	
-9.36658	-2.11342	-7.71071	
-10.5503	-2.82246	-9.35708	
-11.7612	-3.39311	-10.9431	
-13.0896	-3.83238	-12.3612	
-14.5426	-4.27725	-13.6274	
-15.929	-4.73187	-14.8728	
-17.2367	-5.22615	-16.1293	
-18.495	-5.70186	-17.4116	
-19.6845	-6.17218	-18.7252	
-20.8492	-6.6385	-20.0554	
-22.007	-7.11505	-21.3905	
-23.1246	-7.59505	-22.7137	
-24.2688	-8.06704	-24.0241	
-25.4269	-8.58708	-25.3157	
-26.5372	-9.11004	-26.5628	
-27.542	-9.61776	-27.7819	
-27.9664	-9.87705	-29.0756	
-29.0493	-9.60919	-30.2122	
-31.4617	-11.2549	-31.9038	
-32.1572	-11.8338	-33.1797	
-32.4475	-11.7262	-34.1449	
-32.1977	-11.1388	-34.8271	
-33.0774	-10.837	-33.873	
-34.169	-10.5888	-33.0326	
-35.5949	-10.4274	-31.9016	
-36.8669	-10.1936	-30.6053	
-38.6602	-9.78691	-29.386	
-40.7842	-9.3922	-28.4819	
-42.9178	-8.9587	-27.7188	
-45.0869	-8.64611	-27.0117	
-47.1764	-8.41076	-26.3588	
-49.2079	-8.16474	-25.815	
-50.8525	-7.98935	-25.0205	
-52.1867	-7.83807	-23.9917	
-53.3553	-7.57195	-22.7556	
-54.4558	-7.31094	-21.3715	
-55.5045	-7.09872	-19.844	
-56.5524	-6.95127	-18.2696	
-57.6076	-6.80534	-16.6934	
-58.7275	-6.6304	-15.2238	
-59.9656	-6.39265	-13.9259	
-61.3027	-6.09642	-12.8167	
-62.7165	-5.75223	-11.8095	
-64.1557	-5.47591	-10.8417	
-65.4906	-5.32713	-9.87773	
-4.15803e-10	1.67797e-10	1.9129e-10	
-0.553508	-0.270921	-2.59045	
-2.31784	-0.338029	-3.10438	
-4.73186	-0.332775	-3.22392	
-6.37491	-0.984296	-4.49337	
-7.46893	-1.77899	-6.18338	
-8.63204	-2.55003	-7.84936	
-9.79284	-3.30212	-9.6309	
-11.0016	-3.91325	-11.343	
-12.3962	-4.36647	-12.764	
-13.8798	-4.80663	-13.9935	
-15.259	-5.24791	-15.2251	
-16.539	-5.69753	-16.4667	
-17.7794	-6.14878	-17.7358	
-18.955	-6.5926	-19.0378	
-20.1101	-7.03719	-20.3476	
-21.254	-7.49789	-21.6719	
-22.4082	-7.96093	-23.0041	
-23.5479	-8.43287	-24.3032	
-24.6975	-8.94091	-25.5757	
-25.8163	-9.42471	-26.7874	
-26.9413	-9.73911	-27.9112	
-28.1084	-10.0329	-29.0959	
-28.8187	-10.6146	-30.2306	
-31.1588	-12.0369	-31.7644	
-31.4311	-12.3779	-33.7692	
-32.1252	-12.5091	-35.1448	
-32.1207	-11.296	-34.2497	
-34.5487	-11.4878	-33.8423	
-34.7195	-11.7301	-33.9259	
-34.4917	-11.7256	-32.0902	
-36.7081	-11.0585	-30.6069	
-39.1111	-10.3325	-29.758	
-41.2907	-9.87935	-28.8963	
-43.5361	-9.47033	-28.2407	
-45.7147	-9.1034	-27.4743	
-47.9232	-8.88241	-26.8019	
-49.9916	-8.6987	-26.1917	
-51.6945	-8.58511	-25.3364	
-53.0503	-8.39726	-24.216	
-54.2586	-8.08899	-22.9054	
-55.3753	-7.77189	-21.4703	
-56.4468	-7.47418	-19.9225	
-57.5078	-7.24214	-18.3302	
-58.5713	-7.04687	-16.781	
-59.6981	-6.85548	-15.3619	
-60.9221	-6.63395	-14.1064	
-62.2448	-6.40658	-13.0233	
-63.6517	-6.15231	-12.0196	
-65.1073	-5.94044	-11.067	
-66.4764	-5.83697	-10.0923	
-5.10032e-10	1.34148e-10	6.08795e-11	
-0.569501	-0.327112	-1.55474	
-2.39044	-0.268559	-2.42937	
-4.3351	-0.694975	-3.30963	
-5.47771	-1.49015	-4.69202	
-6.59094	-2.14293	-6.26124	
-7.80932	-2.92669	-7.93909	
-9.01208	-3.73205	-9.82411	
-10.2425	-4.44529	-11.6973	
-11.7213	-4.94189	-13.137	
-13.2338	-5.36461	-14.3605	
-14.5869	-5.76036	-15.584	
-15.83	-6.16566	-16.8101	
-17.0315	-6.58954	-18.0539	
-18.1943	-7.01727	-19.3297	
-19.3549	-7.4604	-20.6293	
-20.5084	-7.89871	-21.9506	
-21.6607	-8.35561	-23.2892	
-22.81	-8.81502	-24.5898	
-23.9761	-9.32396	-25.8609	
-25.1049	-9.88938	-27.0779	
-26.315	-10.237	-28.0776	
-27.2562	-11.0472	-29.2089	
-28.2483	-12.0184	-29.6072	
-30.9683	-13.0359	-32.1616	
-30.8012	-12.7468	-33.7159	
-32.7974	-11.0614	-34.1586	
-34.9674	-26.8639	-41.2803	
-44.2207	-3.56497	-43.3228	
-34.816	-12.4837	-30.2541	
-34.2351	-11.6465	-31.1469	
-36.9781	-11.3016	-30.654	
-39.5029	-10.7523	-30.163	
-41.7969	-10.278	-29.512	
-43.9964	-9.93909	-28.6497	
-46.3587	-9.64079	-27.9939	
-48.6047	-9.37318	-27.3635	
-50.701	-9.2799	-26.6249	
-52.4345	-9.14192	-25.6373	
-53.8609	-8.92256	-24.4106	
-55.1238	-8.57282	-23.0177	
-56.3009	-8.18728	-21.5579	
-57.3981	-7.79773	-19.9673	
-58.4792	-7.49542	-18.3712	
-59.5614	-7.27551	-16.862	
-60.673	-7.08116	-15.5056	
-61.8798	-6.90601	-14.3032	
-63.1955	-6.74544	-13.2523	
-64.5957	-6.56783	-12.288	
-66.0341	-6.41965	-11.3381	
-67.4344	-6.34782	-10.41	
-2.16597e-10	7.57198e-11	9.45308e-12	
-0.500219	-0.334867	-1.5636	
-1.89265	-0.895236	-2.69303	
-3.38164	-1.5703	-3.57756	
-4.43115	-1.96862	-4.96564	
-5.54153	-2.54144	-6.48569	
-6.79647	-3.1416	-8.08886	
-8.0582	-3.91349	-9.84178	
-9.44934	-4.88868	-11.8087	
-11.0852	-5.54555	-13.459	
-12.5819	-5.90117	-14.7635	
-13.8773	-6.2309	-15.9502	
-15.0979	-6.63818	-17.1487	
-16.2571	-7.04055	-18.3536	
-17.411	-7.46208	-19.6145	
-18.5744	-7.89231	-20.8953	
-19.7396	-8.31932	-22.2065	
-20.9117	-8.74901	-23.553	
-22.0642	-9.24428	-24.8681	
-23.289	-9.7644	-26.1588	
-24.5154	-10.2311	-27.3733	
-25.8482	-10.6642	-28.5516	
-27.0517	-11.51	-29.6083	
-29.2545	-13.2128	-29.6881	
-30.1815	-13.8415	-32.8084	
-31.0712	-12.989	-34.5675	
-34.1767	-12.6748	-31.2438	
24.8583	-29.1948	-26.3114	
-81.4138	-25.3111	-99.7235	
-34.9604	-10.1294	-22.926	
-34.9738	-11.491	-31.7473	
-37.3981	-11.3706	-30.9569	
-39.7854	-11.0831	-30.8448	
-42.1659	-10.7097	-30.205	
-44.442	-10.3752	-29.3576	
-46.8793	-10.1131	-28.7077	
-49.2624	-9.92352	-28.0344	
-51.3979	-9.82188	-27.082	
-53.205	-9.67069	-25.9134	
-54.705	-9.40641	-24.5883	
-56.0571	-9.01047	-23.1173	
-57.2937	-8.55859	-21.5968	
-58.439	-8.08993	-19.9785	
-59.5125	-7.73457	-18.4119	
-60.5561	-7.47329	-16.9377	
-61.64	-7.29756	-15.6497	
-62.8104	-7.19782	-14.542	
-64.0623	-7.10881	-13.5555	
-65.432	-7.02438	-12.6057	
-66.8594	-6.95665	-11.7062	
-68.3089	-6.89626	-10.8219	
-2.30928e-10	-1.09578e-10	2.51362e-10	
-1.78224	-0.968797	-3.84255	
-2.60817	-0.815503	-4.6444	
-4.72986	-0.806855	-4.94559	
-6.87027	-0.689206	-5.48189	
-9.09448	-0.998708	-6.23513	
-10.2921	-1.6718	-8.02075	
-11.4542	-2.32575	-9.70014	
-12.6612	-2.87611	-11.1507	
-13.9611	-3.3826	-12.5126	
-15.3482	-3.87214	-13.822	
-16.7091	-4.31834	-15.0813	
-18.0897	-4.8761	-16.398	
-19.3622	-5.38533	-17.7054	
-20.5798	-5.89641	-19.0565	
-21.7428	-6.36416	-20.4003	
-22.8746	-6.83952	-21.7324	
-23.9718	-7.31168	-23.0405	
-25.0564	-7.82397	-24.3605	
-26.0531	-8.35333	-25.6562	
-26.9438	-8.86498	-26.9312	
-27.6484	-9.25028	-28.2242	
-28.3334	-9.75137	-29.0029	
-29.6184	-10.4623	-29.3949	
-30.9978	-10.3214	-31.5101	
-32.0041	-10.3262	-33.3701	
-32.3173	-10.2885	-34.6776	
-32.0832	-9.92928	-35.0627	
-31.5533	-10.1121	-34.4107	
-32.3674	-9.97933	-33.1324	
-34.234	-9.92514	-31.9282	
-36.0611	-9.72943	-30.6799	
-38.1832	-9.50204	-29.6265	
-40.2711	-9.21487	-28.6801	
-42.2915	-8.9408	-27.7763	
-44.3703	-8.61343	-27.1282	
-46.2741	-8.31713	-26.3976	
-48.1801	-8.06289	-25.8137	
-49.7207	-7.78117	-25.1867	
-50.942	-7.47598	-24.3406	
-52.0393	-7.21388	-23.2906	
-52.9928	-7.02184	-22.096	
-53.9612	-6.90153	-20.7018	
-55.0094	-6.83529	-19.2389	
-56.0996	-6.78462	-17.7391	
-57.3377	-6.64703	-16.2095	
-58.7101	-6.35183	-14.7949	
-60.0681	-5.9681	-13.5292	
-61.4874	-5.54181	-12.3463	
-62.8752	-5.20941	-11.2738	
-64.2006	-4.98676	-10.278	
6.93406e-10	5.12708e-10	7.01545e-10	
-0.577882	-1.15212	-4.798	
-2.51175	-0.744876	-4.23229	
-4.62207	-0.870932	-4.7205	
-6.92447	-0.828272	-5.15653	
-8.35845	-1.61463	-6.63871	
-9.58387	-2.20577	-8.32531	
-10.7887	-2.84893	-10.0196	
-12.0092	-3.37791	-11.5351	
-13.3126	-3.8669	-12.904	
-14.6983	-4.36781	-14.1848	
-16.0456	-4.82368	-15.4277	
-17.3838	-5.34539	-16.7169	
-18.6458	-5.83434	-18.009	
-19.8436	-6.32234	-19.3311	
-20.9986	-6.78314	-20.6585	
-22.1392	-7.24741	-21.9899	
-23.2474	-7.71785	-23.3098	
-24.3511	-8.20085	-24.6241	
-25.4221	-8.69568	-25.9271	
-26.435	-9.15938	-27.2352	
-27.4639	-9.61509	-28.6622	
-28.4643	-9.81523	-30.2289	
-29.915	-9.95684	-31.3621	
-30.6909	-10.4541	-32.3449	
-31.2423	-10.6923	-33.2917	
-31.9247	-10.5215	-34.0432	
-32.0929	-10.3821	-34.0302	
-31.5477	-11.012	-34.5302	
-33.3904	-10.7844	-33.5019	
-35.0402	-10.5684	-32.3293	
-36.8664	-10.3035	-31.2302	
-38.7779	-10.0295	-30.1633	
-40.8451	-9.67489	-29.2179	
-42.894	-9.34452	-28.4551	
-45.0185	-9.04615	-27.7542	
-47.014	-8.76504	-27.0596	
-48.9791	-8.49918	-26.4181	
-50.6094	-8.21207	-25.6013	
-51.9122	-7.95943	-24.6301	
-53.0588	-7.67644	-23.471	
-54.0837	-7.44939	-22.1958	
-55.0827	-7.28747	-20.7921	
-56.1092	-7.16962	-19.3066	
-57.1622	-7.06891	-17.8068	
-58.3196	-6.90845	-16.3419	
-59.6038	-6.65316	-14.979	
-60.9294	-6.33917	-13.7839	
-62.3384	-6.01229	-12.6791	
-63.7362	-5.74256	-11.631	
-65.0739	-5.57218	-10.6421	
7.1181e-13	2.18415e-10	4.208e-10	
-0.35342	-0.8347	-3.76965	
-2.50189	-0.799599	-3.67897	
-4.70566	-0.698942	-4.09783	
-6.64892	-1.25483	-5.10381	
-7.69005	-1.9961	-6.87253	
-8.90042	-2.68644	-8.56983	
-10.0906	-3.34661	-10.3273	
-11.3147	-3.88044	-11.9159	
-12.6216	-4.36928	-13.2888	
-14.0203	-4.88029	-14.5386	
-15.3822	-5.34363	-15.7794	
-16.6866	-5.82151	-17.0362	
-17.9311	-6.28615	-18.3149	
-19.1172	-6.7437	-19.6296	
-20.275	-7.18967	-20.9515	
-21.4082	-7.646	-22.2766	
-22.5329	-8.10778	-23.6051	
-23.6563	-8.55136	-24.9091	
-24.7778	-9.0288	-26.2046	
-25.8718	-9.52446	-27.4708	
-26.8615	-9.9476	-28.6314	
-27.5474	-10.2481	-29.828	
-27.8454	-9.81931	-31.1199	
-30.6737	-11.197	-32.8135	
-31.5931	-12.2675	-33.8303	
-31.8166	-12.8832	-34.7397	
-32.0569	-12.0285	-35.2971	
-33.5724	-11.5637	-34.6934	
-34.7383	-11.443	-33.912	
-36.1371	-11.2655	-32.8212	
-37.6918	-10.8204	-31.7248	
-39.3922	-10.4902	-30.6633	
-41.4378	-10.1143	-29.8089	
-43.5149	-9.77671	-28.9965	
-45.6423	-9.48084	-28.2846	
-47.7779	-9.23549	-27.5692	
-49.7776	-9.02148	-26.877	
-51.4695	-8.75043	-25.9775	
-52.8484	-8.47628	-24.8951	
-54.0298	-8.16799	-23.6518	
-55.107	-7.88896	-22.3123	
-56.1378	-7.6492	-20.8898	
-57.1584	-7.48075	-19.4053	
-58.1914	-7.33589	-17.9155	
-59.2977	-7.1727	-16.4891	
-60.5229	-6.95676	-15.1791	
-61.8318	-6.71164	-14.011	
-63.2286	-6.46124	-12.9325	
-64.6622	-6.27515	-11.9077	
-65.9888	-6.16862	-10.9021	
-2.03041e-10	1.00805e-10	1.4996e-10	
-0.58952	-0.697246	-2.30956	
-2.47569	-0.800356	-3.06847	
-4.53687	-1.01736	-3.95416	
-5.90722	-1.70195	-5.31075	
-7.02358	-2.33569	-6.93929	
-8.19013	-3.09167	-8.71565	
-9.37188	-3.79365	-10.59	
-10.5936	-4.37387	-12.279	
-11.929	-4.90162	-13.6653	
-13.3433	-5.41945	-14.8929	
-14.7045	-5.87638	-16.1263	
-15.9854	-6.32238	-17.3678	
-17.2094	-6.74632	-18.6307	
-18.3845	-7.1735	-19.9266	
-19.5358	-7.6069	-21.2431	
-20.673	-8.03369	-22.5678	
-21.8064	-8.49389	-23.8965	
-22.9453	-8.93452	-25.2041	
-24.0867	-9.43069	-26.4999	
-25.1623	-9.97727	-27.7741	
-26.1764	-10.4442	-28.987	
-27.4429	-10.8061	-29.9857	
-27.959	-11.3237	-31.1344	
-29.7173	-11.8726	-31.8566	
-31.0922	-12.75	-34.1692	
-32.2789	-12.2886	-35.4068	
-33.0976	-12.5589	-35.2328	
-34.0046	-11.2376	-35.3561	
-34.4364	-11.9746	-34.4977	
-35.279	-12.1277	-33.1136	
-37.7802	-11.3599	-32.1438	
-39.8827	-10.9179	-31.2423	
-41.9914	-10.5307	-30.3915	
-44.1099	-10.2409	-29.5329	
-46.2893	-9.9255	-28.7914	
-48.4789	-9.70875	-28.0985	
-50.53	-9.53122	-27.3346	
-52.2783	-9.2971	-26.3185	
-53.7212	-8.98584	-25.1292	
-54.9532	-8.63016	-23.8176	
-56.0902	-8.27782	-22.4307	
-57.1427	-7.97464	-20.9759	
-58.1623	-7.75793	-19.4832	
-59.1983	-7.58932	-18.0165	
-60.2846	-7.43541	-16.6291	
-61.4728	-7.25817	-15.3596	
-62.7567	-7.08767	-14.23	
-64.1325	-6.91311	-13.1803	
-65.5824	-6.75749	-12.1672	
-66.9179	-6.68045	-11.1646	
-2.52225e-10	1.01457e-10	5.69272e-11	
-0.607306	-0.56237	-1.71692	
-2.68722	-0.621392	-2.55806	
-3.96054	-1.39353	-3.85604	
-5.02052	-2.05627	-5.40184	
-6.15799	-2.71782	-7.01027	
-7.3798	-3.43512	-8.80136	
-8.59483	-4.17169	-10.7429	
-9.85145	-4.86233	-12.571	
-11.2598	-5.47288	-14.0186	
-12.6845	-5.98842	-15.2598	
-14.0238	-6.41191	-16.4839	
-15.2676	-6.80474	-17.7049	
-16.4665	-7.20169	-18.9365	
-17.6326	-7.62027	-20.2175	
-18.7831	-8.04246	-21.5219	
-19.9223	-8.45396	-22.8463	
-21.0717	-8.88775	-24.1866	
-22.207	-9.34077	-25.4941	
-23.3666	-9.87012	-26.7836	
-24.5671	-10.4457	-28.0772	
-25.6316	-11.2474	-29.3592	
-26.7315	-10.9431	-30.2919	
-27.3823	-12.256	-26.9995	
-31.4216	-12.1632	-31.4178	
-31.0113	-13.2931	-34.7543	
-31.9751	-12.6241	-35.1218	
-31.5387	-16.8518	-34.6603	
-35.1755	-9.82146	-39.89	
-34.4475	-13.3433	-33.3385	
-35.0557	-12.5484	-32.4473	
-37.6169	-11.8071	-32.4373	
-40.2201	-11.2844	-31.8234	
-42.4105	-10.9469	-30.965	
-44.6014	-10.6348	-30.1082	
-46.8593	-10.3417	-29.3624	
-49.0821	-10.1784	-28.6114	
-51.2122	-10.0524	-27.7533	
-53.0289	-9.80744	-26.6502	
-54.5317	-9.45262	-25.3506	
-55.8572	-9.0296	-23.9646	
-57.0553	-8.62349	-22.5312	
-58.1344	-8.26074	-21.0291	
-59.1789	-7.9958	-19.5352	
-60.2171	-7.83219	-18.1123	
-61.2723	-7.70969	-16.7859	
-62.4238	-7.5897	-15.5718	
-63.6771	-7.48295	-14.4645	
-65.0428	-7.37193	-13.4469	
-66.4516	-7.27315	-12.4648	
-67.8572	-7.19257	-11.5022	
-4.52286e-11	1.01881e-10	6.38351e-11	
-0.520586	-0.725567	-1.94321	
-1.80852	-1.81962	-2.84523	
-2.98471	-2.15891	-3.99477	
-3.97919	-2.59401	-5.5212	
-5.10459	-3.09172	-7.19339	
-6.33855	-3.65756	-8.91801	
-7.63796	-4.33749	-10.7352	
-9.09104	-5.25931	-12.6516	
-10.6401	-6.04437	-14.3145	
-12.0227	-6.52713	-15.6508	
-13.3024	-6.88472	-16.8487	
-14.5243	-7.2708	-18.0366	
-15.6931	-7.65843	-19.2372	
-16.8461	-8.0657	-20.5004	
-18.0064	-8.46527	-21.7821	
-19.1659	-8.86207	-23.0982	
-20.3208	-9.29806	-24.4418	
-21.4867	-9.7693	-25.781	
-22.6927	-10.31	-27.0937	
-23.9353	-10.895	-28.3388	
-25.2431	-11.2696	-29.3987	
-26.0791	-11.5948	-30.3258	
-27.6893	-12.3025	-31.6445	
-29.4265	-14.1379	-33.3876	
-31.1119	-13.2214	-34.9226	
-32.0755	-13.4505	-35.3087	
-31.1178	-15.9072	-35.0387	
-33.947	-16.12	-41.8947	
-36.2757	-11.996	-29.3184	
-35.1566	-12.3852	-32.5657	
-37.8238	-12.2986	-32.9382	
-40.48	-11.6557	-32.4734	
-42.823	-11.3188	-31.589	
-45.0286	-11.0279	-30.7502	
-47.3966	-10.795	-30.0522	
-49.6047	-10.6694	-29.193	
-51.8281	-10.5037	-28.1851	
-53.7413	-10.2341	-26.9479	
-55.367	-9.86776	-25.5617	
-56.7841	-9.4135	-24.0759	
-58.0545	-8.97808	-22.5759	
-59.1879	-8.54705	-21.0438	
-60.2338	-8.25027	-19.5768	
-61.2468	-8.07032	-18.1948	
-62.2645	-7.966	-16.9259	
-63.3747	-7.91635	-15.7943	
-64.5724	-7.88411	-14.7454	
-65.8993	-7.84518	-13.7656	
-67.2879	-7.82167	-12.8377	
-68.7107	-7.74118	-11.9243	
3.88484e-10	3.03683e-10	1.0107e-09	
0.182313	-1.36141	-5.31466	
-2.44523	-1.08608	-4.52183	
-4.72007	-1.18071	-5.24023	
-7.19746	-0.894785	-5.45663	
-8.72587	-1.61194	-7.05846	
-9.91304	-2.24049	-8.98301	
-11.0245	-2.83463	-10.6646	
-12.1998	-3.34849	-12.1209	
-13.4899	-3.87504	-13.4644	
-14.8589	-4.38131	-14.7321	
-16.2267	-4.88206	-15.9951	
-17.5772	-5.45925	-17.3159	
-18.8323	-5.9611	-18.6165	
-20.0319	-6.4722	-19.9678	
-21.1722	-6.94071	-21.3077	
-22.2946	-7.38477	-22.6257	
-23.3951	-7.82778	-23.9223	
-24.4902	-8.28305	-25.2186	
-25.5543	-8.76433	-26.5235	
-26.5525	-9.21878	-27.8316	
-27.3969	-9.66604	-29.083	
-28.133	-9.77408	-30.2356	
-29.6203	-9.93591	-31.1777	
-31.3423	-10.4592	-32.595	
-32.1307	-10.6974	-34.4213	
-32.3254	-10.9266	-35.2855	
-32.0733	-10.3698	-35.6949	
-32.9827	-10.3974	-34.818	
-33.7643	-10.902	-34.182	
-34.7421	-10.8775	-32.7733	
-36.7157	-10.5657	-31.6686	
-38.8663	-10.3031	-30.7172	
-40.9465	-10.0065	-29.8356	
-43.0566	-9.76053	-29.0668	
-45.107	-9.44162	-28.348	
-47.0329	-9.15819	-27.6141	
-48.9198	-8.85652	-26.9861	
-50.4609	-8.54629	-26.2943	
-51.6729	-8.24527	-25.4168	
-52.7349	-7.9452	-24.3298	
-53.6342	-7.7276	-23.1255	
-54.5782	-7.55778	-21.7719	
-55.6003	-7.40247	-20.355	
-56.6595	-7.26319	-18.9111	
-57.8469	-7.09111	-17.4369	
-59.1402	-6.81364	-16.0216	
-60.4718	-6.4858	-14.7117	
-61.8884	-6.13962	-13.4776	
-63.2653	-5.86815	-12.3721	
-64.6302	-5.71953	-11.3458	
7.11514e-10	4.36027e-10	6.86402e-10	
-0.328517	-1.19021	-4.45811	
-2.57173	-1.25341	-4.25788	
-4.79884	-1.02514	-4.6421	
-6.77041	-1.44825	-5.6539	
-7.91613	-2.11427	-7.38017	
-9.1274	-2.74406	-9.1857	
-10.3066	-3.33834	-10.9676	
-11.5246	-3.84474	-12.4943	
-12.8306	-4.35439	-13.8535	
-14.1959	-4.88094	-15.1042	
-15.5364	-5.39	-16.338	
-16.8597	-5.92437	-17.6265	
-18.1026	-6.40828	-18.9136	
-19.2818	-6.88954	-20.2385	
-20.4277	-7.34643	-21.5651	
-21.5474	-7.78578	-22.8823	
-22.6534	-8.23009	-24.2074	
-23.7609	-8.65651	-25.5007	
-24.8372	-9.11051	-26.8007	
-25.8723	-9.57567	-28.0854	
-26.8075	-9.96278	-29.4216	
-27.6496	-10.1251	-30.6766	
-28.7792	-10.2288	-31.8506	
-31.0384	-10.8857	-33.1677	
-31.2205	-11.6137	-33.7118	
-31.5749	-11.4673	-34.1281	
-33.0373	-11.2023	-35.5133	
-36.1802	-11.5202	-33.889	
-34.6103	-11.2949	-34.0354	
-35.3767	-11.2393	-33.079	
-37.4311	-11.0612	-32.1597	
-39.4934	-10.7402	-31.2704	
-41.5454	-10.409	-30.4636	
-43.6066	-10.1454	-29.676	
-45.6819	-9.84724	-28.9595	
-47.6885	-9.50638	-28.2427	
-49.6376	-9.21354	-27.5484	
-51.2696	-8.89363	-26.6881	
-52.5797	-8.6068	-25.6696	
-53.7126	-8.33572	-24.4735	
-54.7058	-8.11029	-23.2072	
-55.6835	-7.9126	-21.8536	
-56.6883	-7.7577	-20.4328	
-57.7321	-7.60638	-19.0078	
-58.8656	-7.42403	-17.5813	
-60.1064	-7.18758	-16.2066	
-61.4086	-6.93399	-14.9596	
-62.7976	-6.67046	-13.7829	
-64.2038	-6.47061	-12.6913	
-65.5604	-6.33371	-11.6994	