# vtk DataFile Version 4.1
vtk output
ASCII
DATASET UNSTRUCTURED_GRID

POINTS	1836	float
0	0	0	
1	0	0	
2	0	0	
3	0	0	
4	0	0	
5	0	0	
6	0	0	
7	0	0	
8	0	0	
9	0	0	
10	0	0	
11	0	0	
12	0	0	
13	0	0	
14	0	0	
15	0	0	
16	0	0	
17	0	0	
18	0	0	
19	0	0	
20	0	0	
21	0	0	
22	0	0	
23	0	0	
24	0	0	
25	0	0	
26	0	0	
27	0	0	
28	0	0	
29	0	0	
30	0	0	
31	0	0	
32	0	0	
33	0	0	
34	0	0	
35	0	0	
36	0	0	
37	0	0	
38	0	0	
39	0	0	
40	0	0	
41	0	0	
42	0	0	
43	0	0	
44	0	0	
45	0	0	
46	0	0	
47	0	0	
48	0	0	
49	0	0	
50	0	0	
0	1	0	
1	1	0	
2	1	0	
3	1	0	
4	1	0	
5	1	0	
6	1	0	
7	1	0	
8	1	0	
9	1	0	
10	1	0	
11	1	0	
12	1	0	
13	1	0	
14	1	0	
15	1	0	
16	1	0	
17	1	0	
18	1	0	
19	1	0	
20	1	0	
21	1	0	
22	1	0	
23	1	0	
24	1	0	
25	1	0	
26	1	0	
27	1	0	
28	1	0	
29	1	0	
30	1	0	
31	1	0	
32	1	0	
33	1	0	
34	1	0	
35	1	0	
36	1	0	
37	1	0	
38	1	0	
39	1	0	
40	1	0	
41	1	0	
42	1	0	
43	1	0	
44	1	0	
45	1	0	
46	1	0	
47	1	0	
48	1	0	
49	1	0	
50	1	0	
0	2	0	
1	2	0	
2	2	0	
3	2	0	
4	2	0	
5	2	0	
6	2	0	
7	2	0	
8	2	0	
9	2	0	
10	2	0	
11	2	0	
12	2	0	
13	2	0	
14	2	0	
15	2	0	
16	2	0	
17	2	0	
18	2	0	
19	2	0	
20	2	0	
21	2	0	
22	2	0	
23	2	0	
24	2	0	
25	2	0	
26	2	0	
27	2	0	
28	2	0	
29	2	0	
30	2	0	
31	2	0	
32	2	0	
33	2	0	
34	2	0	
35	2	0	
36	2	0	
37	2	0	
38	2	0	
39	2	0	
40	2	0	
41	2	0	
42	2	0	
43	2	0	
44	2	0	
45	2	0	
46	2	0	
47	2	0	
48	2	0	
49	2	0	
50	2	0	
0	3	0	
1	3	0	
2	3	0	
3	3	0	
4	3	0	
5	3	0	
6	3	0	
7	3	0	
8	3	0	
9	3	0	
10	3	0	
11	3	0	
12	3	0	
13	3	0	
14	3	0	
15	3	0	
16	3	0	
17	3	0	
18	3	0	
19	3	0	
20	3	0	
21	3	0	
22	3	0	
23	3	0	
24	3	0	
25	3	0	
26	3	0	
27	3	0	
28	3	0	
29	3	0	
30	3	0	
31	3	0	
32	3	0	
33	3	0	
34	3	0	
35	3	0	
36	3	0	
37	3	0	
38	3	0	
39	3	0	
40	3	0	
41	3	0	
42	3	0	
43	3	0	
44	3	0	
45	3	0	
46	3	0	
47	3	0	
48	3	0	
49	3	0	
50	3	0	
0	4	0	
1	4	0	
2	4	0	
3	4	0	
4	4	0	
5	4	0	
6	4	0	
7	4	0	
8	4	0	
9	4	0	
10	4	0	
11	4	0	
12	4	0	
13	4	0	
14	4	0	
15	4	0	
16	4	0	
17	4	0	
18	4	0	
19	4	0	
20	4	0	
21	4	0	
22	4	0	
23	4	0	
24	4	0	
25	4	0	
26	4	0	
27	4	0	
28	4	0	
29	4	0	
30	4	0	
31	4	0	
32	4	0	
33	4	0	
34	4	0	
35	4	0	
36	4	0	
37	4	0	
38	4	0	
39	4	0	
40	4	0	
41	4	0	
42	4	0	
43	4	0	
44	4	0	
45	4	0	
46	4	0	
47	4	0	
48	4	0	
49	4	0	
50	4	0	
0	5	0	
1	5	0	
2	5	0	
3	5	0	
4	5	0	
5	5	0	
6	5	0	
7	5	0	
8	5	0	
9	5	0	
10	5	0	
11	5	0	
12	5	0	
13	5	0	
14	5	0	
15	5	0	
16	5	0	
17	5	0	
18	5	0	
19	5	0	
20	5	0	
21	5	0	
22	5	0	
23	5	0	
24	5	0	
25	5	0	
26	5	0	
27	5	0	
28	5	0	
29	5	0	
30	5	0	
31	5	0	
32	5	0	
33	5	0	
34	5	0	
35	5	0	
36	5	0	
37	5	0	
38	5	0	
39	5	0	
40	5	0	
41	5	0	
42	5	0	
43	5	0	
44	5	0	
45	5	0	
46	5	0	
47	5	0	
48	5	0	
49	5	0	
50	5	0	
0	0	1	
1	0	1	
2	0	1	
3	0	1	
4	0	1	
5	0	1	
6	0	1	
7	0	1	
8	0	1	
9	0	1	
10	0	1	
11	0	1	
12	0	1	
13	0	1	
14	0	1	
15	0	1	
16	0	1	
17	0	1	
18	0	1	
19	0	1	
20	0	1	
21	0	1	
22	0	1	
23	0	1	
24	0	1	
25	0	1	
26	0	1	
27	0	1	
28	0	1	
29	0	1	
30	0	1	
31	0	1	
32	0	1	
33	0	1	
34	0	1	
35	0	1	
36	0	1	
37	0	1	
38	0	1	
39	0	1	
40	0	1	
41	0	1	
42	0	1	
43	0	1	
44	0	1	
45	0	1	
46	0	1	
47	0	1	
48	0	1	
49	0	1	
50	0	1	
0	1	1	
1	1	1	
2	1	1	
3	1	1	
4	1	1	
5	1	1	
6	1	1	
7	1	1	
8	1	1	
9	1	1	
10	1	1	
11	1	1	
12	1	1	
13	1	1	
14	1	1	
15	1	1	
16	1	1	
17	1	1	
18	1	1	
19	1	1	
20	1	1	
21	1	1	
22	1	1	
23	1	1	
24	1	1	
25	1	1	
26	1	1	
27	1	1	
28	1	1	
29	1	1	
30	1	1	
31	1	1	
32	1	1	
33	1	1	
34	1	1	
35	1	1	
36	1	1	
37	1	1	
38	1	1	
39	1	1	
40	1	1	
41	1	1	
42	1	1	
43	1	1	
44	1	1	
45	1	1	
46	1	1	
47	1	1	
48	1	1	
49	1	1	
50	1	1	
0	2	1	
1	2	1	
2	2	1	
3	2	1	
4	2	1	
5	2	1	
6	2	1	
7	2	1	
8	2	1	
9	2	1	
10	2	1	
11	2	1	
12	2	1	
13	2	1	
14	2	1	
15	2	1	
16	2	1	
17	2	1	
18	2	1	
19	2	1	
20	2	1	
21	2	1	
22	2	1	
23	2	1	
24	2	1	
25	2	1	
26	2	1	
27	2	1	
28	2	1	
29	2	1	
30	2	1	
31	2	1	
32	2	1	
33	2	1	
34	2	1	
35	2	1	
36	2	1	
37	2	1	
38	2	1	
39	2	1	
40	2	1	
41	2	1	
42	2	1	
43	2	1	
44	2	1	
45	2	1	
46	2	1	
47	2	1	
48	2	1	
49	2	1	
50	2	1	
0	3	1	
1	3	1	
2	3	1	
3	3	1	
4	3	1	
5	3	1	
6	3	1	
7	3	1	
8	3	1	
9	3	1	
10	3	1	
11	3	1	
12	3	1	
13	3	1	
14	3	1	
15	3	1	
16	3	1	
17	3	1	
18	3	1	
19	3	1	
20	3	1	
21	3	1	
22	3	1	
23	3	1	
24	3	1	
25	3	1	
26	3	1	
27	3	1	
28	3	1	
29	3	1	
30	3	1	
31	3	1	
32	3	1	
33	3	1	
34	3	1	
35	3	1	
36	3	1	
37	3	1	
38	3	1	
39	3	1	
40	3	1	
41	3	1	
42	3	1	
43	3	1	
44	3	1	
45	3	1	
46	3	1	
47	3	1	
48	3	1	
49	3	1	
50	3	1	
0	4	1	
1	4	1	
2	4	1	
3	4	1	
4	4	1	
5	4	1	
6	4	1	
7	4	1	
8	4	1	
9	4	1	
10	4	1	
11	4	1	
12	4	1	
13	4	1	
14	4	1	
15	4	1	
16	4	1	
17	4	1	
18	4	1	
19	4	1	
20	4	1	
21	4	1	
22	4	1	
23	4	1	
24	4	1	
25	4	1	
26	4	1	
27	4	1	
28	4	1	
29	4	1	
30	4	1	
31	4	1	
32	4	1	
33	4	1	
34	4	1	
35	4	1	
36	4	1	
37	4	1	
38	4	1	
39	4	1	
40	4	1	
41	4	1	
42	4	1	
43	4	1	
44	4	1	
45	4	1	
46	4	1	
47	4	1	
48	4	1	
49	4	1	
50	4	1	
0	5	1	
1	5	1	
2	5	1	
3	5	1	
4	5	1	
5	5	1	
6	5	1	
7	5	1	
8	5	1	
9	5	1	
10	5	1	
11	5	1	
12	5	1	
13	5	1	
14	5	1	
15	5	1	
16	5	1	
17	5	1	
18	5	1	
19	5	1	
20	5	1	
21	5	1	
22	5	1	
23	5	1	
24	5	1	
25	5	1	
26	5	1	
27	5	1	
28	5	1	
29	5	1	
30	5	1	
31	5	1	
32	5	1	
33	5	1	
34	5	1	
35	5	1	
36	5	1	
37	5	1	
38	5	1	
39	5	1	
40	5	1	
41	5	1	
42	5	1	
43	5	1	
44	5	1	
45	5	1	
46	5	1	
47	5	1	
48	5	1	
49	5	1	
50	5	1	
0	0	2	
1	0	2	
2	0	2	
3	0	2	
4	0	2	
5	0	2	
6	0	2	
7	0	2	
8	0	2	
9	0	2	
10	0	2	
11	0	2	
12	0	2	
13	0	2	
14	0	2	
15	0	2	
16	0	2	
17	0	2	
18	0	2	
19	0	2	
20	0	2	
21	0	2	
22	0	2	
23	0	2	
24	0	2	
25	0	2	
26	0	2	
27	0	2	
28	0	2	
29	0	2	
30	0	2	
31	0	2	
32	0	2	
33	0	2	
34	0	2	
35	0	2	
36	0	2	
37	0	2	
38	0	2	
39	0	2	
40	0	2	
41	0	2	
42	0	2	
43	0	2	
44	0	2	
45	0	2	
46	0	2	
47	0	2	
48	0	2	
49	0	2	
50	0	2	
0	1	2	
1	1	2	
2	1	2	
3	1	2	
4	1	2	
5	1	2	
6	1	2	
7	1	2	
8	1	2	
9	1	2	
10	1	2	
11	1	2	
12	1	2	
13	1	2	
14	1	2	
15	1	2	
16	1	2	
17	1	2	
18	1	2	
19	1	2	
20	1	2	
21	1	2	
22	1	2	
23	1	2	
24	1	2	
25	1	2	
26	1	2	
27	1	2	
28	1	2	
29	1	2	
30	1	2	
31	1	2	
32	1	2	
33	1	2	
34	1	2	
35	1	2	
36	1	2	
37	1	2	
38	1	2	
39	1	2	
40	1	2	
41	1	2	
42	1	2	
43	1	2	
44	1	2	
45	1	2	
46	1	2	
47	1	2	
48	1	2	
49	1	2	
50	1	2	
0	2	2	
1	2	2	
2	2	2	
3	2	2	
4	2	2	
5	2	2	
6	2	2	
7	2	2	
8	2	2	
9	2	2	
10	2	2	
11	2	2	
12	2	2	
13	2	2	
14	2	2	
15	2	2	
16	2	2	
17	2	2	
18	2	2	
19	2	2	
20	2	2	
21	2	2	
22	2	2	
23	2	2	
24	2	2	
25	2	2	
26	2	2	
27	2	2	
28	2	2	
29	2	2	
30	2	2	
31	2	2	
32	2	2	
33	2	2	
34	2	2	
35	2	2	
36	2	2	
37	2	2	
38	2	2	
39	2	2	
40	2	2	
41	2	2	
42	2	2	
43	2	2	
44	2	2	
45	2	2	
46	2	2	
47	2	2	
48	2	2	
49	2	2	
50	2	2	
0	3	2	
1	3	2	
2	3	2	
3	3	2	
4	3	2	
5	3	2	
6	3	2	
7	3	2	
8	3	2	
9	3	2	
10	3	2	
11	3	2	
12	3	2	
13	3	2	
14	3	2	
15	3	2	
16	3	2	
17	3	2	
18	3	2	
19	3	2	
20	3	2	
21	3	2	
22	3	2	
23	3	2	
24	3	2	
25	3	2	
26	3	2	
27	3	2	
28	3	2	
29	3	2	
30	3	2	
31	3	2	
32	3	2	
33	3	2	
34	3	2	
35	3	2	
36	3	2	
37	3	2	
38	3	2	
39	3	2	
40	3	2	
41	3	2	
42	3	2	
43	3	2	
44	3	2	
45	3	2	
46	3	2	
47	3	2	
48	3	2	
49	3	2	
50	3	2	
0	4	2	
1	4	2	
2	4	2	
3	4	2	
4	4	2	
5	4	2	
6	4	2	
7	4	2	
8	4	2	
9	4	2	
10	4	2	
11	4	2	
12	4	2	
13	4	2	
14	4	2	
15	4	2	
16	4	2	
17	4	2	
18	4	2	
19	4	2	
20	4	2	
21	4	2	
22	4	2	
23	4	2	
24	4	2	
25	4	2	
26	4	2	
27	4	2	
28	4	2	
29	4	2	
30	4	2	
31	4	2	
32	4	2	
33	4	2	
34	4	2	
35	4	2	
36	4	2	
37	4	2	
38	4	2	
39	4	2	
40	4	2	
41	4	2	
42	4	2	
43	4	2	
44	4	2	
45	4	2	
46	4	2	
47	4	2	
48	4	2	
49	4	2	
50	4	2	
0	5	2	
1	5	2	
2	5	2	
3	5	2	
4	5	2	
5	5	2	
6	5	2	
7	5	2	
8	5	2	
9	5	2	
10	5	2	
11	5	2	
12	5	2	
13	5	2	
14	5	2	
15	5	2	
16	5	2	
17	5	2	
18	5	2	
19	5	2	
20	5	2	
21	5	2	
22	5	2	
23	5	2	
24	5	2	
25	5	2	
26	5	2	
27	5	2	
28	5	2	
29	5	2	
30	5	2	
31	5	2	
32	5	2	
33	5	2	
34	5	2	
35	5	2	
36	5	2	
37	5	2	
38	5	2	
39	5	2	
40	5	2	
41	5	2	
42	5	2	
43	5	2	
44	5	2	
45	5	2	
46	5	2	
47	5	2	
48	5	2	
49	5	2	
50	5	2	
0	0	3	
1	0	3	
2	0	3	
3	0	3	
4	0	3	
5	0	3	
6	0	3	
7	0	3	
8	0	3	
9	0	3	
10	0	3	
11	0	3	
12	0	3	
13	0	3	
14	0	3	
15	0	3	
16	0	3	
17	0	3	
18	0	3	
19	0	3	
20	0	3	
21	0	3	
22	0	3	
23	0	3	
24	0	3	
25	0	3	
26	0	3	
27	0	3	
28	0	3	
29	0	3	
30	0	3	
31	0	3	
32	0	3	
33	0	3	
34	0	3	
35	0	3	
36	0	3	
37	0	3	
38	0	3	
39	0	3	
40	0	3	
41	0	3	
42	0	3	
43	0	3	
44	0	3	
45	0	3	
46	0	3	
47	0	3	
48	0	3	
49	0	3	
50	0	3	
0	1	3	
1	1	3	
2	1	3	
3	1	3	
4	1	3	
5	1	3	
6	1	3	
7	1	3	
8	1	3	
9	1	3	
10	1	3	
11	1	3	
12	1	3	
13	1	3	
14	1	3	
15	1	3	
16	1	3	
17	1	3	
18	1	3	
19	1	3	
20	1	3	
21	1	3	
22	1	3	
23	1	3	
24	1	3	
25	1	3	
26	1	3	
27	1	3	
28	1	3	
29	1	3	
30	1	3	
31	1	3	
32	1	3	
33	1	3	
34	1	3	
35	1	3	
36	1	3	
37	1	3	
38	1	3	
39	1	3	
40	1	3	
41	1	3	
42	1	3	
43	1	3	
44	1	3	
45	1	3	
46	1	3	
47	1	3	
48	1	3	
49	1	3	
50	1	3	
0	2	3	
1	2	3	
2	2	3	
3	2	3	
4	2	3	
5	2	3	
6	2	3	
7	2	3	
8	2	3	
9	2	3	
10	2	3	
11	2	3	
12	2	3	
13	2	3	
14	2	3	
15	2	3	
16	2	3	
17	2	3	
18	2	3	
19	2	3	
20	2	3	
21	2	3	
22	2	3	
23	2	3	
24	2	3	
25	2	3	
26	2	3	
27	2	3	
28	2	3	
29	2	3	
30	2	3	
31	2	3	
32	2	3	
33	2	3	
34	2	3	
35	2	3	
36	2	3	
37	2	3	
38	2	3	
39	2	3	
40	2	3	
41	2	3	
42	2	3	
43	2	3	
44	2	3	
45	2	3	
46	2	3	
47	2	3	
48	2	3	
49	2	3	
50	2	3	
0	3	3	
1	3	3	
2	3	3	
3	3	3	
4	3	3	
5	3	3	
6	3	3	
7	3	3	
8	3	3	
9	3	3	
10	3	3	
11	3	3	
12	3	3	
13	3	3	
14	3	3	
15	3	3	
16	3	3	
17	3	3	
18	3	3	
19	3	3	
20	3	3	
21	3	3	
22	3	3	
23	3	3	
24	3	3	
25	3	3	
26	3	3	
27	3	3	
28	3	3	
29	3	3	
30	3	3	
31	3	3	
32	3	3	
33	3	3	
34	3	3	
35	3	3	
36	3	3	
37	3	3	
38	3	3	
39	3	3	
40	3	3	
41	3	3	
42	3	3	
43	3	3	
44	3	3	
45	3	3	
46	3	3	
47	3	3	
48	3	3	
49	3	3	
50	3	3	
0	4	3	
1	4	3	
2	4	3	
3	4	3	
4	4	3	
5	4	3	
6	4	3	
7	4	3	
8	4	3	
9	4	3	
10	4	3	
11	4	3	
12	4	3	
13	4	3	
14	4	3	
15	4	3	
16	4	3	
17	4	3	
18	4	3	
19	4	3	
20	4	3	
21	4	3	
22	4	3	
23	4	3	
24	4	3	
25	4	3	
26	4	3	
27	4	3	
28	4	3	
29	4	3	
30	4	3	
31	4	3	
32	4	3	
33	4	3	
34	4	3	
35	4	3	
36	4	3	
37	4	3	
38	4	3	
39	4	3	
40	4	3	
41	4	3	
42	4	3	
43	4	3	
44	4	3	
45	4	3	
46	4	3	
47	4	3	
48	4	3	
49	4	3	
50	4	3	
0	5	3	
1	5	3	
2	5	3	
3	5	3	
4	5	3	
5	5	3	
6	5	3	
7	5	3	
8	5	3	
9	5	3	
10	5	3	
11	5	3	
12	5	3	
13	5	3	
14	5	3	
15	5	3	
16	5	3	
17	5	3	
18	5	3	
19	5	3	
20	5	3	
21	5	3	
22	5	3	
23	5	3	
24	5	3	
25	5	3	
26	5	3	
27	5	3	
28	5	3	
29	5	3	
30	5	3	
31	5	3	
32	5	3	
33	5	3	
34	5	3	
35	5	3	
36	5	3	
37	5	3	
38	5	3	
39	5	3	
40	5	3	
41	5	3	
42	5	3	
43	5	3	
44	5	3	
45	5	3	
46	5	3	
47	5	3	
48	5	3	
49	5	3	
50	5	3	
0	0	4	
1	0	4	
2	0	4	
3	0	4	
4	0	4	
5	0	4	
6	0	4	
7	0	4	
8	0	4	
9	0	4	
10	0	4	
11	0	4	
12	0	4	
13	0	4	
14	0	4	
15	0	4	
16	0	4	
17	0	4	
18	0	4	
19	0	4	
20	0	4	
21	0	4	
22	0	4	
23	0	4	
24	0	4	
25	0	4	
26	0	4	
27	0	4	
28	0	4	
29	0	4	
30	0	4	
31	0	4	
32	0	4	
33	0	4	
34	0	4	
35	0	4	
36	0	4	
37	0	4	
38	0	4	
39	0	4	
40	0	4	
41	0	4	
42	0	4	
43	0	4	
44	0	4	
45	0	4	
[...]
POINT_DATA	1836
VECTORS u float
-9.09411e-09	-2.5908e-09	-9.99257e-11	
0.363201	-0.772078	0.206535	
-1.36681	-0.661532	-0.333182	
-2.86251	-1.23311	-1.20046	
-4.11345	-0.531979	-2.15853	
-5.48838	-0.993062	-2.87484	
-6.89248	-2.22471	-3.23754	
-8.2685	-3.2831	-4.09154	
-9.51433	-4.80287	-5.20631	
-16.1188	1.86387	-12.8013	
-24.6065	13.9319	-12.4584	
-25.1712	1.151	-8.64409	
-23.3207	-0.982548	-13.0721	
-22.4828	-9.08964	-8.35294	
-21.5122	-6.2536	-9.62859	
-20.6554	-5.66046	-10.4271	
-22.0034	-5.79604	-10.0375	
-22.9673	-4.37039	-11.1437	
-25.5859	-3.27387	-12.2673	
-27.1398	-5.17451	-13.6475	
-28.7002	-5.9366	-14.5602	
-32.776	-7.0617	-13.2629	
-30.7669	0.789853	-17.2741	
-30.9627	-8.69561	-17.2228	
-35.4237	-6.08093	-17.8668	
-36.6749	-6.8281	-19.9336	
-37.3089	-5.42966	-20.1921	
-38.2696	-5.56737	-21.6782	
-40.1319	-6.64603	-19.9759	
-41.0806	-7.1553	-16.5536	
-42.5198	-7.48235	-19.8784	
-43.311	-6.19717	-18.3334	
-46.2861	-5.01408	-17.4513	
-47.6848	-3.49562	-16.2771	
-47.2842	-4.66831	-15.7928	
-49.5496	-4.57565	-14.0736	
-51.4265	-0.0358922	-12.8797	
-51.291	1.89079	-6.87092	
-53.1511	2.15977	-6.42683	
-54.4112	3.90117	-5.54261	
-54.5854	4.15225	-5.41901	
-56.963	5.44529	-3.62387	
-57.1379	6.00696	-2.54394	
-61.2785	7.26386	-1.33254	
-59.433	10.3574	-10.3445	
-59.9794	4.62832	-4.07152	
-57.0811	2.74511	-3.34198	
-59.2242	2.90861	-4.23813	
-60.0623	2.90823	-4.11418	
-63.0494	3.04093	-5.78773	
-63.6413	1.38592	-6.42237	
3.56843e-09	-1.03102e-09	4.097e-10	
0.450311	-0.581527	0.428254	
-1.94488	-0.686914	-0.597123	
-3.25676	-1.2274	-1.41852	
-4.71752	-1.88565	-2.17401	
-6.16989	-1.43804	-3.40268	
-7.05254	-2.6856	-4.3718	
-8.23431	-3.71822	-4.9316	
-9.47073	-4.59179	-5.41413	
-9.84052	-7.95395	-3.60111	
-24.9954	-5.28061	-3.89234	
-28.3452	-2.44778	-5.79016	
-28.3528	-10.3782	-3.68837	
-19.563	-8.21334	-9.28894	
-20.2537	-7.71177	-8.9763	
-19.9261	-7.72976	-10.4873	
-21.1165	-7.59318	-11.1257	
-23.5671	-5.95432	-10.9772	
-26.0564	-4.54116	-11.8126	
-27.3192	-5.75462	-13.796	
-28.5813	-4.73111	-13.6563	
-30.5327	-7.32583	-13.5691	
-28.68	18.9704	-16.3969	
-31.7737	-7.11572	-18.5669	
-34.4422	-8.86441	-18.656	
-40.0226	-8.48063	-14.8486	
-38.0873	-7.77779	-21.4734	
-39.547	-6.80715	-22.6202	
-39.2798	-12.058	-19.2223	
-41.317	-7.24385	-19.064	
-41.3242	-7.26041	-18.8029	
-43.5677	-7.64942	-17.8843	
-46.0202	-6.72138	-17.1871	
-46.8634	-5.8567	-16.1248	
-48.0054	-5.5158	-15.287	
-51.1396	-5.818	-14.3851	
-51.5233	-5.99186	-13.202	
-52.6411	-0.996183	-6.30958	
-54.4106	0.969809	-6.41764	
-55.0698	2.10929	-4.74832	
-54.0061	2.78806	-3.87735	
-55.1416	4.5883	-4.19817	
-57.8569	5.53125	-2.71533	
-60.3221	7.77008	-5.94756	
-63.0718	18.6499	0.479984	
-61.5778	3.6591	-6.11065	
-55.1818	3.83163	-7.90426	
-59.5444	-2.70641	-3.05002	
-59.525	2.99421	-1.58198	
-63.0603	-3.86565	-6.40416	
-64.4554	2.37011	-6.85033	
-3.37225e-09	-8.85222e-10	9.09341e-10	
-0.757554	-0.536467	-0.282314	
-2.26772	-0.977288	-0.821121	
-3.69686	-1.53269	-1.52969	
-5.31826	-1.88638	-2.24962	
-6.04226	-2.99885	-3.13307	
-6.74141	-4.11601	-3.93298	
-7.7563	-4.96893	-4.97472	
-7.87943	-6.08813	-6.53992	
-8.69991	-7.86775	-6.93397	
-8.49694	-12.4926	-6.57758	
-12.4721	-12.3565	-9.37726	
-15.7642	-10.7498	-7.40337	
-16.5904	-10.9389	-7.34881	
-17.2111	-10.4069	-8.00539	
-14.8767	-9.02305	-12.0525	
-20.5047	-9.67131	-10.3104	
-23.2891	-9.57461	-11.8033	
-24.9484	-14.2444	-12.5425	
-26.173	-7.90177	-14.4224	
-29.9425	-7.35555	-12.7439	
-39.4044	12.586	-10.4576	
-30.1371	-22.1896	-19.8742	
-31.7389	-9.11567	-18.1238	
-33.3086	-7.84352	-19.5461	
-35.6178	-8.21685	-21.2104	
-37.9152	-7.58896	-21.2993	
-39.2611	-6.56758	-22.8867	
-39.4555	-6.58797	-20.878	
-39.3487	-7.95642	-20.1828	
-41.5735	-9.18668	-19.2031	
-40.412	-11.8263	-18.4584	
-50.5395	-4.04239	-15.4487	
-48.3123	-6.77019	-15.8134	
-41.3309	-12.5006	-18.0775	
-47.4577	-6.82532	-15.5608	
-51.169	-7.11991	-13.0573	
-53.9423	4.63876	-12.861	
-52.11	1.1162	-7.60929	
-55.9217	0.609737	-3.73846	
-55.1795	2.65307	-2.54083	
-54.2435	3.64697	-3.26578	
-57.2874	3.83067	-3.18687	
-57.2244	9.35827	-2.17274	
-61.406	9.30081	-8.04467	
-55.879	17.7191	-2.89833	
-123.707	-90.7689	-25.4456	
17.6466	157.658	105.93	
-87.5396	-50.31	-47.7784	
-66.6381	1.83278	-14.2715	
-63.6371	1.88489	-13.0843	
-3.08506e-09	-1.10276e-09	3.61414e-10	
-0.95137	-0.580103	-0.418356	
-2.28234	-1.02173	-0.973297	
-4.031	-1.48233	-2.10139	
-5.5776	-2.44312	-2.88829	
-6.89656	-3.91756	-3.48072	
-7.85363	-5.21195	-4.29831	
-8.54662	-6.44799	-5.19979	
-9.4715	-7.76437	-5.87127	
-9.68876	-9.5579	-7.05199	
-11.6428	-11.2172	-7.71135	
-13.5374	-11.3378	-8.4593	
-14.968	-9.56556	-10.1913	
-15.4608	-11.3574	-8.51269	
-15.3335	-12.9928	-8.57522	
-17.7066	-12.8786	-8.97052	
-20.2278	-11.4739	-10.4012	
-22.3848	-10.4401	-11.9771	
-25.0892	-10.8411	-13.0583	
-27.1205	-8.28343	-14.5043	
-30.7166	-3.65922	-12.4768	
-30.438	-8.91263	-15.8197	
-32.3385	-6.8982	-17.8651	
-30.1412	-12.3704	-19.5301	
-33.7266	-7.47528	-20.0341	
-34.7015	-6.94069	-22.2246	
-35.8501	-8.32617	-23.3594	
-36.8618	-6.52057	-21.3627	
-38.2243	-7.36598	-19.1867	
-41.2486	-8.53362	-19.1888	
-42.4394	-8.82142	-19.2168	
-39.9881	-13.2354	-14.3727	
-66.0503	3.27133	-14.5204	
-50.2022	-5.63181	-15.4549	
-48.4344	-8.16459	-15.6596	
-48.8169	-8.45787	-14.5929	
-49.6931	-4.99066	-13.2387	
-49.2683	-3.01753	-8.88062	
-51.7741	2.03943	-8.45405	
-55.0509	1.53913	-3.11816	
-53.9625	0.711335	-2.35055	
-54.5873	1.42866	-2.14249	
-52.417	2.29793	-2.44487	
-48.7029	-6.09568	-13.6433	
-55.543	4.13186	-5.01553	
-60.2723	6.54529	-14.4282	
-52.238	-1.16315	-23.2999	
-62.4264	21.5666	16.9363	
-73.4036	-65.2784	-57.4011	
-45.5285	-0.417399	-29.126	
-55.9642	5.34951	-12.9107	
2.80894e-10	-3.60842e-09	6.37705e-10	
-1.29726	-0.510371	-0.678227	
-2.318	-1.42036	-1.37492	
-2.77272	-2.9808	-2.37355	
-4.61426	-4.00589	-2.88283	
-6.66781	-5.32628	-3.24212	
-7.55245	-6.77756	-3.69056	
-8.26776	-8.14986	-4.67338	
-8.5452	-8.95016	-6.26664	
-9.69802	-10.8263	-7.01356	
-11.0753	-13.054	-7.81293	
-9.79072	-16.3307	-8.32526	
-0.467649	-28.9317	-9.35694	
-0.968541	-31.383	-13.8958	
-5.4612	-27.7075	-12.6012	
-17.5817	-12.444	-8.74158	
-20.5279	-12.3223	-9.77105	
-22.6727	-12.3656	-11.2668	
-24.4562	-9.34861	-12.3751	
-26.2054	-9.65183	-14.1303	
-29.4777	-13.2476	-14.4856	
-29.9571	-8.28755	-15.6732	
-30.9388	-8.88802	-17.8158	
-30.1009	-9.17825	-20.2602	
-31.2223	-9.86479	-20.8506	
-32.5269	-11.3654	-21.7694	
-34.5744	-9.66908	-20.8955	
-36.1062	-8.18395	-19.2936	
-37.5893	-7.25037	-18.4309	
-40.0004	-10.2712	-18.1234	
-42.121	-10.23	-17.146	
-42.113	-11.4832	-19.5345	
-20.7127	-10.7218	-28.293	
-44.3922	-10.4233	-17.0286	
-47.3919	-9.93697	-15.4194	
-45.7138	-6.49153	-13.9045	
-46.5302	-5.79253	-11.2136	
-46.2892	1.11245	-7.70275	
-48.0685	0.347366	-6.4543	
-51.4729	0.488473	-3.7125	
-54.3793	1.22388	-2.64293	
-53.6829	1.68944	-2.36638	
-52.5586	-0.090648	-1.56017	
-64.2265	11.8157	5.26063	
-56.3621	-1.33798	-5.18186	
-58.4369	-1.19879	-6.52196	
-59.8679	0.934485	-2.785	
-60.18	0.730547	-5.08031	
-68.4614	-7.56126	1.66621	
-62.815	-0.376388	-9.15163	
-61.5079	0.390977	-13.2237	
-4.55658e-09	-6.47672e-10	1.06747e-09	
-2.14123	-1.10122	-0.463406	
-3.28831	-2.59513	-1.07122	
-4.31154	-3.91307	-1.76874	
-5.88941	-5.51847	-1.38056	
-7.15765	-6.94932	-2.16004	
-8.09629	-7.97048	-3.37465	
-8.92656	-9.08516	-4.68287	
-9.97947	-10.6324	-5.47251	
-10.6586	-12.3089	-6.81638	
-11.656	-14.1664	-7.94903	
-12.0417	-16.5515	-9.57559	
-15.5516	-14.254	-9.16255	
-16.7485	-11.9699	-8.58576	
-18.4815	-9.10872	-10.5472	
-17.7012	-13.9215	-10.2827	
-20.763	-13.6301	-9.89262	
-23.3728	-13.0297	-10.6337	
-24.1446	-17.9524	-12.342	
-25.9799	-11.8133	-14.3128	
-28.4144	-12.3839	-13.7271	
-29.305	-10.8112	-16.0689	
-30.7625	-10.4548	-18.0062	
-32.4286	-11.1074	-20.4667	
-31.4904	-12.0048	-22.0795	
-32.7482	-11.4745	-20.5827	
-33.8993	-12.2567	-21.7804	
-35.3136	-10.4243	-24.7679	
-37.2617	-11.354	-19.779	
-40.9791	-10.3665	-19.2847	
-43.687	-11.2228	-16.9674	
-50.0564	-9.90591	-13.5703	
-61.7917	-11.3886	-9.22828	
-45.3846	-10.096	-16.0632	
-45.0838	-6.55419	-14.7271	
-35.6223	1.69617	-2.36531	
-45.82	5.07103	-11.9039	
-38.9563	5.43034	-3.43077	
-45.9644	2.22164	-5.84523	
-44.4319	8.75307	-6.71472	
-53.1108	-0.339304	-4.1706	
-53.3848	0.621939	-2.92343	
-53.984	2.24349	-1.57564	
-55.5062	0.0777875	-3.04176	
-53.0617	-3.01777	-6.54994	
-58.6555	-2.35641	-4.6694	
-58.3768	-0.379134	-3.14207	
-60.8689	1.49197	-2.15096	
-65.7191	-1.8991	-5.40855	
-59.5991	-3.61333	-5.43712	
-60.5311	-5.29187	-8.27008	
-3.22828e-09	-2.39217e-09	1.56072e-09	
-1.43679	-0.609853	-0.0689867	
-2.25806	-0.937772	-0.7597	
-3.48177	-0.068451	-1.75621	
-4.65094	0.945698	-2.35935	
-6.38604	-0.141877	-3.3218	
-8.01236	-1.67304	-4.08084	
-9.02564	-3.10622	-4.89236	
-10.736	-3.77114	-5.67847	
-12.2897	-5.05839	-5.54806	
-13.8163	-6.65402	-6.01247	
-19.6803	0.175547	-10.622	
-18.7922	-3.62656	-8.56173	
-19.7752	-6.22336	-9.09781	
-20.4659	-7.25683	-11.3299	
-21.6494	-6.48373	-11.8405	
-22.9542	-6.37643	-12.2684	
-24.4756	-5.48036	-12.1511	
-27.5352	-3.67418	-11.9721	
-32.8392	-3.39888	-10.8888	
-27.1358	-4.39653	-12.2993	
-27.8965	-6.52168	-14.808	
-28.9859	-4.42322	-15.6536	
-31.5756	-5.21461	-20.2601	
-34.5147	-8.80833	-20.407	
-38.4227	-10.9256	-18.1888	
-40.2771	-8.38822	-20.0927	
-37.9248	-3.27617	-21.3292	
-38.2579	-5.58904	-19.4008	
-41.3204	-6.62559	-21.3003	
-41.7	-5.94443	-20.4671	
-44.8744	-6.14428	-19.9065	
-46.2139	-5.43861	-18.5608	
-46.1934	-3.73693	-17.1193	
-47.6149	-4.66575	-17.3413	
-49.1538	-4.20304	-14.7681	
-51.2754	-1.49914	-11.4843	
-51.5761	1.28215	-7.08592	
-51.2723	4.567	-5.37149	
-54.4734	3.20877	-4.93301	
-55.6235	4.52856	-5.94459	
-55.5003	4.3201	-4.02325	
-56.5073	6.20967	-3.10846	
-56.3251	-6.42815	-11.0194	
-69.3073	-2.13062	3.05087	
-59.6127	8.95467	-4.77839	
-58.8209	3.57402	-5.04079	
-59.0317	0.745557	-5.43477	
-60.6871	2.32506	-4.00152	
-62.9833	3.00311	-5.31056	
-64.6361	2.19908	-6.52891	
-5.95824e-10	-6.35431e-10	2.14225e-09	
-1.50649	-0.449949	-0.314282	
-2.75261	-0.914164	-0.95868	
-4.06941	-1.73633	-1.82612	
-5.0194	-2.66292	-2.90573	
-6.05247	-2.69632	-3.71334	
-7.92732	-2.6434	-4.91298	
-9.00435	-3.57183	-5.688	
-10.43	-4.42001	-6.48698	
-12.0334	-5.25766	-7.09252	
-12.8586	-5.86655	-7.84386	
-20.0291	-4.57415	-9.24229	
-21.4861	-0.353105	-11.4877	
-18.07	-8.04416	-10.5295	
-19.8523	-9.16991	-10.8716	
-20.8414	-8.13266	-11.4109	
-22.3877	-8.10029	-11.4535	
-23.5066	-7.16081	-12.895	
-24.6316	-2.15699	-14.3556	
-27.1203	-3.97404	-16.2183	
-34.6858	-4.85056	-19.2266	
-27.3933	-10.0122	-16.5341	
-33.0762	-2.67855	-17.472	
-32.5922	-6.07852	-19.9	
-33.3924	-6.7754	-21.1862	
-35.1528	-8.37928	-22.2271	
-37.3912	-8.28718	-22.5102	
-39.7421	-6.74318	-22.9486	
-42.7632	-1.06343	-23.188	
-41.9392	-8.9315	-20.6016	
-42.072	-7.75319	-20.5455	
-43.9479	-8.00365	-19.0767	
-46.4407	-5.86788	-18.0705	
-46.6645	-6.27074	-17.1198	
-47.9986	-6.86497	-16.4063	
-50.3981	-5.76847	-15.4873	
-51.1223	-3.83919	-10.2683	
-51.2639	1.08728	-8.12018	
-52.8983	0.976856	-5.91212	
-54.2958	1.45363	-6.99761	
-55.4383	2.87808	-4.35142	
-56.2087	4.38167	-4.10844	
-57.5258	6.09414	-4.05863	
-61.393	4.86183	-5.44901	
-55.4399	-6.70084	-10.9047	
-63.7709	9.39832	-4.56832	
-49.2836	2.91125	-7.28983	
-58.671	1.0781	-4.47722	
-61.4655	1.47569	-6.10599	
-63.3268	-0.986008	-6.6881	
-64.4811	0.668597	-6.90941	
-2.88145e-09	-7.68961e-10	1.97522e-09	
-1.63096	-0.438288	-0.470987	
-3.10137	-1.0653	-1.12441	
-4.52653	-1.73769	-1.91351	
-5.75733	-2.29483	-2.61699	
-7.08141	-3.06314	-3.60174	
-7.41554	-4.49382	-4.18018	
-8.39933	-5.91434	-4.811	
-9.94255	-6.48251	-6.10932	
-11.1889	-6.86978	-7.34893	
-11.316	-7.95211	-7.7395	
-10.0998	-8.68322	-8.15914	
-7.4454	-12.2488	-12.4187	
-16.8757	-11.0261	-10.8654	
-18.977	-11.3679	-10.2663	
-20.0061	-10.9353	-11.0908	
-21.7426	-9.67812	-11.0928	
-23.7202	-9.61183	-11.9654	
-27.8354	-12.0437	-12.0056	
-30.2167	-11.463	-11.9736	
-27.7389	-14.416	-12.2157	
-25.6588	-19.131	-22.4255	
-31.1807	-6.74281	-17.3945	
-32.384	-9.65304	-19.3761	
-34.1354	-8.30895	-20.4215	
-33.9706	-9.33016	-22.5235	
-36.3404	-8.15405	-23.9246	
-39.1269	-8.42339	-24.2588	
-37.6112	-6.1452	-23.8695	
-40.6537	-8.83947	-22.4387	
-42.286	-8.51737	-19.6657	
-42.0577	-11.5055	-19.0229	
-46.374	-7.75754	-18.5388	
-47.1879	-7.35809	-17.3194	
-48.8046	-6.35594	-16.1429	
-49.3272	-7.28662	-15.9253	
-50.7526	-5.69154	-13.3378	
-51.3	-7.71829	-8.62458	
-54.7363	-5.16708	-4.8264	
-53.1801	0.922979	-5.94202	
-54.6335	2.72628	-5.06334	
-55.7911	2.40929	-3.76346	
-54.0752	3.91429	-7.79681	
-65.5102	9.0361	1.26053	
-59.1965	16.3189	-10.0139	
-62.6165	-1.0781	-9.98342	
-106.159	-35.0828	-42.9605	
-63.9459	-4.29897	-6.41298	
-58.5903	2.51991	-1.14366	
-63.3163	-1.82594	-7.4872	
-63.1915	1.25333	-9.27503	
-4.11181e-09	-9.07327e-10	8.1039e-10	
-1.82584	-0.430099	-0.572871	
-3.23137	-1.17095	-1.29013	
-3.77079	-2.32944	-2.13637	
-4.62874	-3.2696	-3.0389	
-5.83724	-3.96352	-4.17399	
-7.05663	-5.55434	-4.84733	
-8.21527	-7.03291	-5.35546	
-9.58085	-8.31024	-6.18735	
-10.7046	-9.31824	-7.23572	
-12.1051	-10.3581	-8.61104	
-13.4235	-10.888	-9.32905	
-14.1446	-11.6677	-9.24921	
-15.1797	-11.8009	-9.53452	
-16.8619	-11.7672	-9.18334	
-17.8518	-11.8342	-9.80014	
-20.5301	-11.362	-11.4112	
-22.715	-10.456	-12.9401	
-24.552	-8.46425	-13.1252	
-28.1578	-9.278	-13.4584	
-28.9875	2.7453	-17.1594	
-31.7582	-4.41136	-16.5044	
-29.8466	-9.54378	-18.4973	
-32.3234	-8.39375	-19.4032	
-30.9258	-10.3851	-22.1121	
-32.6492	-10.109	-22.4688	
-35.8777	-10.0069	-22.5701	
-38.2685	-7.23268	-23.5835	
-35.6622	-8.6449	-22.3713	
-40.3172	-9.69922	-20.7526	
-41.604	-10.1046	-19.3375	
-41.9782	-9.5629	-17.8903	
-38.4908	-15.1862	-17.1502	
-46.1855	-9.02973	-17.626	
-47.3491	-8.23662	-16.6838	
-48.0653	-8.60054	-15.2796	
-49.3988	-5.47265	-12.0545	
-50.6546	-2.63218	-10.8381	
-44.2391	-4.08657	-11.4908	
-63.4549	-0.128326	0.537324	
-53.4488	2.00631	-3.40681	
-53.7878	0.820022	-4.84712	
-48.7875	-4.00577	-4.60168	
-30.6761	-23.8124	-13.1168	
-56.1284	2.55195	-3.38897	
-57.6919	6.494	-1.72594	
-60.1681	3.27648	0.726758	
-58.0778	4.32494	-3.1614	
-58.9613	6.636	0.988207	
-60.7219	9.44807	-9.50961	
-59.6425	6.71168	-11.8546	
-1.0743e-09	-2.92493e-09	1.61862e-09	
-1.55156	-0.697101	-0.743611	
-2.88082	-1.74057	-1.36968	
-4.86353	-3.16809	-1.71264	
-5.6797	-4.45691	-2.40049	
-5.94127	-5.83145	-3.27839	
-6.72755	-6.96555	-4.20794	
-7.72728	-8.26942	-5.18103	
-9.1243	-10.1483	-5.44328	
-10.5318	-11.7938	-6.41264	
-11.1226	-12.5557	-8.4336	
-12.9191	-13.1101	-9.35457	
-16.6923	-11.2667	-7.83961	
-18.7182	-10.6695	-6.20375	
-20.3368	-8.65437	-8.49421	
-18.2251	-12.577	-9.64015	
-20.7506	-11.6773	-10.9278	
-22.962	-11.3813	-12.0288	
-24.6926	-11.0854	-13.552	
-25.7787	-7.82361	-14.9344	
-27.9625	-9.02767	-15.9081	
-29.1318	-10.3893	-17.5471	
-31.1599	-9.4303	-19.1323	
-29.8479	-11.1462	-21.3409	
-31.5694	-11.25	-22.4631	
-33.3596	-11.254	-21.6586	
-33.7917	-11.529	-23.2006	
-33.8842	-6.2763	-20.7609	
-35.5294	-9.86727	-21.229	
-40.9771	-9.82139	-20.3674	
-42.1423	-10.6278	-19.4634	
-43.3755	-11.3914	-18.3182	
-47.4452	-9.64709	-17.5316	
-45.373	-10.0115	-17.5245	
-46.2053	-9.78613	-15.8444	
-48.743	-5.98897	-14.5299	
-47.8104	-5.31246	-11.7573	
-49.1606	-1.87596	-9.55702	
-45.4266	7.35214	-9.60393	
-52.6442	-0.0752821	-5.36732	
-53.3559	0.223845	-3.71474	
-53.2153	1.10262	-3.42318	
-53.3138	2.2025	-3.86338	
-58.9878	7.41452	-2.04417	
-61.3906	2.07448	-8.3874	
-57.034	-1.43915	-6.24917	
-60.1956	2.51994	-3.64522	
-60.6205	1.82609	-1.80648	
-59.923	2.5209	-0.417222	
-62.3243	1.54023	-4.31844	
-62.8721	0.0889959	-8.37449	
-1.64352e-09	-1.61564e-09	5.2312e-10	
-2.03568	-1.32246	-0.585722	
-2.9271	-2.62405	-0.914386	
-3.82567	-4.5225	-1.30348	
-4.92152	-5.83879	-1.99457	
-6.40556	-7.21577	-2.77046	
-7.59178	-8.36089	-3.81658	
-8.99558	-9.48412	-5.0134	
-10.2257	-10.4571	-6.19217	
-10.4805	-11.9695	-7.21229	
-10.6867	-13.8726	-8.40584	
-12.3062	-15.0281	-8.79305	
-13.7147	-14.4872	-9.64936	
-14.9636	-14.9099	-10.0459	
-16.9714	-14.8731	-8.58225	
-18.3968	-13.2303	-9.58725	
-20.4665	-12.3675	-11.3162	
-22.6554	-12.0164	-12.5785	
-25.9078	-12.8495	-12.38	
-33.9984	-20.621	-13.086	
-26.6375	-11.4509	-16.2575	
-29.2366	-10.0926	-17.2848	
-30.5433	-9.87929	-18.9253	
-30.1429	-12.0802	-23.2944	
-31.464	-11.9575	-22.5261	
-32.1744	-12.286	-28.4941	
-33.595	-12.005	-23.2408	
-36.9333	-18.9352	-24.9991	
-38.3659	-7.9553	-19.4264	
-40.0779	-10.1945	-19.0846	
-42.603	-11.2409	-19.096	
-44.3751	-10.3389	-18.381	
-45.5448	-15.5722	-17.6046	
-46.3928	-11.4967	-17.4753	
-45.0119	-8.75395	-11.6667	
-31.0166	13.3877	-4.8784	
4.89689	19.4718	33.1863	
-43.4962	2.68911	-9.32437	
-46.815	-0.261771	-7.4571	
-51.0398	-4.086	-4.70619	
-54.5481	0.205532	-3.61421	
-54.1185	-0.671029	-3.86636	
-53.9251	0.470936	-3.01687	
-48.6184	1.18371	-2.46965	
-52.7773	-7.44294	-12.1141	
-58.4446	-0.797557	-6.9774	
-58.8786	-1.71392	-4.45029	
-60.3123	0.71775	-3.59818	
-60.2626	0.822423	-4.35189	
-61.547	-1.84842	-4.54823	
-62.468	-2.82224	-5.00694	
-2.00447e-09	-2.30203e-09	2.92154e-09	
-1.20851	-0.484399	-0.294373	
-2.20902	0.809554	-1.45206	
-4.69903	0.173042	-2.2823	
-5.92958	-0.71297	-3.24274	
-6.97119	-1.37091	-3.81172	
-9.0542	-1.82329	-4.34959	
-10.4141	-3.00124	-5.40594	
-11.8265	-3.61171	-6.10956	
-13.1977	-3.5158	-7.18182	
-14.8661	-4.05524	-7.76552	
-18.2377	-5.27485	-6.04474	
-22.5168	-3.90467	-8.93023	
-19.3111	-5.37305	-12.0245	
-20.6068	-6.52452	-12.0216	
-23.7864	-5.63942	-9.64583	
-23.6068	-7.08102	-11.4987	
-24.7848	-6.49707	-13.6477	
-28.4484	-8.07181	-13.3358	
-25.1286	-7.50548	-8.62829	
-11.9017	-0.852768	-4.95556	
-24.4307	-0.842608	-12.8955	
-31.4218	-4.80117	-18.549	
-32.9598	-5.20022	-19.9278	
-24.5717	2.89268	-31.146	
-36.7848	-7.12534	-21.4555	
-39.0697	-7.11094	-22.1362	
-38.4788	-6.7257	-21.2987	
-39.827	-7.38726	-21.8643	
-40.8926	-6.51947	-21.2365	
-41.8853	-8.3253	-21.7701	
-43.2181	-6.69659	-20.1052	
-45.648	-5.55095	-19.3458	
-46.9963	-4.01606	-18.3077	
-49.6351	-4.29338	-16.0796	
-50.2811	-4.43397	-15.3612	
-49.2641	-2.26793	-10.8386	
-51.5493	2.14521	-8.67688	
-53.05	2.63986	-7.55172	
-55.238	3.18063	-6.87734	
-57.6368	4.20325	-5.70637	
-57.2519	3.82701	-5.29337	
-57.9432	4.21607	-5.41862	
-59.2854	7.38853	-4.7883	
-57.3024	6.46147	-7.65565	
-56.6212	-6.07441	-13.2211	
-57.9522	3.66317	-4.53547	
-58.6284	2.19003	-4.86045	
-61.0314	1.97701	-5.3	
-63.4098	3.06736	-5.30125	
-65.4336	2.44934	-6.03654	
-8.55663e-10	-5.18951e-10	3.0122e-09	
-2.12798	-0.314061	-0.273919	
-3.76416	-1.22572	-0.900973	
-4.20883	-1.97976	-1.99124	
-5.14792	-2.46897	-3.12519	
-6.66225	-2.76756	-4.17384	
-8.20947	-3.35162	-4.74869	
-9.32998	-3.90755	-5.51394	
-11.0224	-4.1293	-6.9538	
-12.413	-5.16792	-7.71729	
-12.8722	-6.00441	-8.10278	
-16.241	-6.54177	-9.69108	
-17.4474	-7.19086	-9.67918	
-18.8818	-7.80351	-10.333	
-19.9145	-7.74647	-11.7167	
-20.2742	-9.18795	-13.1076	
-21.886	-7.28027	-15.5943	
-24.129	-8.01657	-13.7012	
-23.0494	-10.5503	-15.7408	
-25.618	-8.28502	-16.2985	
-27.6384	-10.1855	-17.3186	
-29.8503	-9.20555	-17.061	
-31.7849	-7.40869	-19.3278	
-33.6423	-6.42029	-20.1948	
-36.6297	-8.12782	-19.524	
-37.1922	-7.63442	-20.8624	
-37.8355	-7.85602	-21.4021	
-38.6659	-7.81948	-21.6128	
-40.3831	-8.01803	-21.2844	
-40.905	-7.72761	-21.5801	
-41.3965	-7.77958	-21.4219	
-42.3076	-7.52678	-20.0962	
-44.9675	-7.37519	-19.5466	
-46.8578	-6.74474	-18.4733	
-47.5638	-4.45538	-17.2647	
-49.1286	-5.7213	-15.6859	
-49.9595	-1.78631	-10.5821	
-52.4727	-1.19109	-8.79299	
-52.9696	1.13563	-6.47042	
-54.9414	3.72185	-6.27208	
-55.8273	3.35712	-6.50935	
-56.2601	3.99397	-5.44919	
-56.3041	3.87287	-4.73895	
-58.1694	2.8665	-6.26505	
-59.6875	2.23768	-4.50695	
-54.9906	4.79308	1.93941	
-54.6264	5.14237	-2.94288	
-59.9734	-0.256483	-5.91007	
-60.6084	1.29445	-5.16805	
-62.5358	0.795196	-5.03496	
-64.5326	0.340571	-6.26456	
-1.16979e-09	-6.98723e-10	2.52191e-09	
-1.86638	-0.435361	-0.477527	
-3.46217	-1.16338	-1.216	
-4.50233	-2.10754	-2.04559	
-5.48308	-2.97553	-2.90218	