# vtk DataFile Version 4.1
vtk output
ASCII
DATASET UNSTRUCTURED_GRID

POINTS	1836	float
0	0	0	
1	0	0	
2	0	0	
3	0	0	
4	0	0	
5	0	0	
6	0	0	
7	0	0	
8	0	0	
9	0	0	
10	0	0	
11	0	0	
12	0	0	
13	0	0	
14	0	0	
15	0	0	
16	0	0	
17	0	0	
18	0	0	
19	0	0	
20	0	0	
21	0	0	
22	0	0	
23	0	0	
24	0	0	
25	0	0	
26	0	0	
27	0	0	
28	0	0	
29	0	0	
30	0	0	
31	0	0	
32	0	0	
33	0	0	
34	0	0	
35	0	0	
36	0	0	
37	0	0	
38	0	0	
39	0	0	
40	0	0	
41	0	0	
42	0	0	
43	0	0	
44	0	0	
45	0	0	
46	0	0	
47	0	0	
48	0	0	
49	0	0	
50	0	0	
0	1	0	
1	1	0	
2	1	0	
3	1	0	
4	1	0	
5	1	0	
6	1	0	
7	1	0	
8	1	0	
9	1	0	
10	1	0	
11	1	0	
12	1	0	
13	1	0	
14	1	0	
15	1	0	
16	1	0	
17	1	0	
18	1	0	
19	1	0	
20	1	0	
21	1	0	
22	1	0	
23	1	0	
24	1	0	
25	1	0	
26	1	0	
27	1	0	
28	1	0	
29	1	0	
30	1	0	
31	1	0	
32	1	0	
33	1	0	
34	1	0	
35	1	0	
36	1	0	
37	1	0	
38	1	0	
39	1	0	
40	1	0	
41	1	0	
42	1	0	
43	1	0	
44	1	0	
45	1	0	
46	1	0	
47	1	0	
48	1	0	
49	1	0	
50	1	0	
0	2	0	
1	2	0	
2	2	0	
3	2	0	
4	2	0	
5	2	0	
6	2	0	
7	2	0	
8	2	0	
9	2	0	
10	2	0	
11	2	0	
12	2	0	
13	2	0	
14	2	0	
15	2	0	
16	2	0	
17	2	0	
18	2	0	
19	2	0	
20	2	0	
21	2	0	
22	2	0	
23	2	0	
24	2	0	
25	2	0	
26	2	0	
27	2	0	
28	2	0	
29	2	0	
30	2	0	
31	2	0	
32	2	0	
33	2	0	
34	2	0	
35	2	0	
36	2	0	
37	2	0	
38	2	0	
39	2	0	
40	2	0	
41	2	0	
42	2	0	
43	2	0	
44	2	0	
45	2	0	
46	2	0	
47	2	0	
48	2	0	
49	2	0	
50	2	0	
0	3	0	
1	3	0	
2	3	0	
3	3	0	
4	3	0	
5	3	0	
6	3	0	
7	3	0	
8	3	0	
9	3	0	
10	3	0	
11	3	0	
12	3	0	
13	3	0	
14	3	0	
15	3	0	
16	3	0	
17	3	0	
18	3	0	
19	3	0	
20	3	0	
21	3	0	
22	3	0	
23	3	0	
24	3	0	
25	3	0	
26	3	0	
27	3	0	
28	3	0	
29	3	0	
30	3	0	
31	3	0	
32	3	0	
33	3	0	
34	3	0	
35	3	0	
36	3	0	
37	3	0	
38	3	0	
39	3	0	
40	3	0	
41	3	0	
42	3	0	
43	3	0	
44	3	0	
45	3	0	
46	3	0	
47	3	0	
48	3	0	
49	3	0	
50	3	0	
0	4	0	
1	4	0	
2	4	0	
3	4	0	
4	4	0	
5	4	0	
6	4	0	
7	4	0	
8	4	0	
9	4	0	
10	4	0	
11	4	0	
12	4	0	
13	4	0	
14	4	0	
15	4	0	
16	4	0	
17	4	0	
18	4	0	
19	4	0	
20	4	0	
21	4	0	
22	4	0	
23	4	0	
24	4	0	
25	4	0	
26	4	0	
27	4	0	
28	4	0	
29	4	0	
30	4	0	
31	4	0	
32	4	0	
33	4	0	
34	4	0	
35	4	0	
36	4	0	
37	4	0	
38	4	0	
39	4	0	
40	4	0	
41	4	0	
42	4	0	
43	4	0	
44	4	0	
45	4	0	
46	4	0	
47	4	0	
48	4	0	
49	4	0	
50	4	0	
0	5	0	
1	5	0	
2	5	0	
3	5	0	
4	5	0	
5	5	0	
6	5	0	
7	5	0	
8	5	0	
9	5	0	
10	5	0	
11	5	0	
12	5	0	
13	5	0	
14	5	0	
15	5	0	
16	5	0	
17	5	0	
18	5	0	
19	5	0	
20	5	0	
21	5	0	
22	5	0	
23	5	0	
24	5	0	
25	5	0	
26	5	0	
27	5	0	
28	5	0	
29	5	0	
30	5	0	
31	5	0	
32	5	0	
33	5	0	
34	5	0	
35	5	0	
36	5	0	
37	5	0	
38	5	0	
39	5	0	
40	5	0	
41	5	0	
42	5	0	
43	5	0	
44	5	0	
45	5	0	
46	5	0	
47	5	0	
48	5	0	
49	5	0	
50	5	0	
0	0	1	
1	0	1	
2	0	1	
3	0	1	
4	0	1	
5	0	1	
6	0	1	
7	0	1	
8	0	1	
9	0	1	
10	0	1	
11	0	1	
12	0	1	
13	0	1	
14	0	1	
15	0	1	
16	0	1	
17	0	1	
18	0	1	
19	0	1	
20	0	1	
21	0	1	
22	0	1	
23	0	1	
24	0	1	
25	0	1	
26	0	1	
27	0	1	
28	0	1	
29	0	1	
30	0	1	
31	0	1	
32	0	1	
33	0	1	
34	0	1	
35	0	1	
36	0	1	
37	0	1	
38	0	1	
39	0	1	
40	0	1	
41	0	1	
42	0	1	
43	0	1	
44	0	1	
45	0	1	
46	0	1	
47	0	1	
48	0	1	
49	0	1	
50	0	1	
0	1	1	
1	1	1	
2	1	1	
3	1	1	
4	1	1	
5	1	1	
6	1	1	
7	1	1	
8	1	1	
9	1	1	
10	1	1	
11	1	1	
12	1	1	
13	1	1	
14	1	1	
15	1	1	
16	1	1	
17	1	1	
18	1	1	
19	1	1	
20	1	1	
21	1	1	
22	1	1	
23	1	1	
24	1	1	
25	1	1	
26	1	1	
27	1	1	
28	1	1	
29	1	1	
30	1	1	
31	1	1	
32	1	1	
33	1	1	
34	1	1	
35	1	1	
36	1	1	
37	1	1	
38	1	1	
39	1	1	
40	1	1	
41	1	1	
42	1	1	
43	1	1	
44	1	1	
45	1	1	
46	1	1	
47	1	1	
48	1	1	
49	1	1	
50	1	1	
0	2	1	
1	2	1	
2	2	1	
3	2	1	
4	2	1	
5	2	1	
6	2	1	
7	2	1	
8	2	1	
9	2	1	
10	2	1	
11	2	1	
12	2	1	
13	2	1	
14	2	1	
15	2	1	
16	2	1	
17	2	1	
18	2	1	
19	2	1	
20	2	1	
21	2	1	
22	2	1	
23	2	1	
24	2	1	
25	2	1	
26	2	1	
27	2	1	
28	2	1	
29	2	1	
30	2	1	
31	2	1	
32	2	1	
33	2	1	
34	2	1	
35	2	1	
36	2	1	
37	2	1	
38	2	1	
39	2	1	
40	2	1	
41	2	1	
42	2	1	
43	2	1	
44	2	1	
45	2	1	
46	2	1	
47	2	1	
48	2	1	
49	2	1	
50	2	1	
0	3	1	
1	3	1	
2	3	1	
3	3	1	
4	3	1	
5	3	1	
6	3	1	
7	3	1	
8	3	1	
9	3	1	
10	3	1	
11	3	1	
12	3	1	
13	3	1	
14	3	1	
15	3	1	
16	3	1	
17	3	1	
18	3	1	
19	3	1	
20	3	1	
21	3	1	
22	3	1	
23	3	1	
24	3	1	
25	3	1	
26	3	1	
27	3	1	
28	3	1	
29	3	1	
30	3	1	
31	3	1	
32	3	1	
33	3	1	
34	3	1	
35	3	1	
36	3	1	
37	3	1	
38	3	1	
39	3	1	
40	3	1	
41	3	1	
42	3	1	
43	3	1	
44	3	1	
45	3	1	
46	3	1	
47	3	1	
48	3	1	
49	3	1	
50	3	1	
0	4	1	
1	4	1	
2	4	1	
3	4	1	
4	4	1	
5	4	1	
6	4	1	
7	4	1	
8	4	1	
9	4	1	
10	4	1	
11	4	1	
12	4	1	
13	4	1	
14	4	1	
15	4	1	
16	4	1	
17	4	1	
18	4	1	
19	4	1	
20	4	1	
21	4	1	
22	4	1	
23	4	1	
24	4	1	
25	4	1	
26	4	1	
27	4	1	
28	4	1	
29	4	1	
30	4	1	
31	4	1	
32	4	1	
33	4	1	
34	4	1	
35	4	1	
36	4	1	
37	4	1	
38	4	1	
39	4	1	
40	4	1	
41	4	1	
42	4	1	
43	4	1	
44	4	1	
45	4	1	
46	4	1	
47	4	1	
48	4	1	
49	4	1	
50	4	1	
0	5	1	
1	5	1	
2	5	1	
3	5	1	
4	5	1	
5	5	1	
6	5	1	
7	5	1	
8	5	1	
9	5	1	
10	5	1	
11	5	1	
12	5	1	
13	5	1	
14	5	1	
15	5	1	
16	5	1	
17	5	1	
18	5	1	
19	5	1	
20	5	1	
21	5	1	
22	5	1	
23	5	1	
24	5	1	
25	5	1	
26	5	1	
27	5	1	
28	5	1	
29	5	1	
30	5	1	
31	5	1	
32	5	1	
33	5	1	
34	5	1	
35	5	1	
36	5	1	
37	5	1	
38	5	1	
39	5	1	
40	5	1	
41	5	1	
42	5	1	
43	5	1	
44	5	1	
45	5	1	
46	5	1	
47	5	1	
48	5	1	
49	5	1	
50	5	1	
0	0	2	
1	0	2	
2	0	2	
3	0	2	
4	0	2	
5	0	2	
6	0	2	
7	0	2	
8	0	2	
9	0	2	
10	0	2	
11	0	2	
12	0	2	
13	0	2	
14	0	2	
15	0	2	
16	0	2	
17	0	2	
18	0	2	
19	0	2	
20	0	2	
21	0	2	
22	0	2	
23	0	2	
24	0	2	
25	0	2	
26	0	2	
27	0	2	
28	0	2	
29	0	2	
30	0	2	
31	0	2	
32	0	2	
33	0	2	
34	0	2	
35	0	2	
36	0	2	
37	0	2	
38	0	2	
39	0	2	
40	0	2	
41	0	2	
42	0	2	
43	0	2	
44	0	2	
45	0	2	
46	0	2	
47	0	2	
48	0	2	
49	0	2	
50	0	2	
0	1	2	
1	1	2	
2	1	2	
3	1	2	
4	1	2	
5	1	2	
6	1	2	
7	1	2	
8	1	2	
9	1	2	
10	1	2	
11	1	2	
12	1	2	
13	1	2	
14	1	2	
15	1	2	
16	1	2	
17	1	2	
18	1	2	
19	1	2	
20	1	2	
21	1	2	
22	1	2	
23	1	2	
24	1	2	
25	1	2	
26	1	2	
27	1	2	
28	1	2	
29	1	2	
30	1	2	
31	1	2	
32	1	2	
33	1	2	
34	1	2	
35	1	2	
36	1	2	
37	1	2	
38	1	2	
39	1	2	
40	1	2	
41	1	2	
42	1	2	
43	1	2	
44	1	2	
45	1	2	
46	1	2	
47	1	2	
48	1	2	
49	1	2	
50	1	2	
0	2	2	
1	2	2	
2	2	2	
3	2	2	
4	2	2	
5	2	2	
6	2	2	
7	2	2	
8	2	2	
9	2	2	
10	2	2	
11	2	2	
12	2	2	
13	2	2	
14	2	2	
15	2	2	
16	2	2	
17	2	2	
18	2	2	
19	2	2	
20	2	2	
21	2	2	
22	2	2	
23	2	2	
24	2	2	
25	2	2	
26	2	2	
27	2	2	
28	2	2	
29	2	2	
30	2	2	
31	2	2	
32	2	2	
33	2	2	
34	2	2	
35	2	2	
36	2	2	
37	2	2	
38	2	2	
39	2	2	
40	2	2	
41	2	2	
42	2	2	
43	2	2	
44	2	2	
45	2	2	
46	2	2	
47	2	2	
48	2	2	
49	2	2	
50	2	2	
0	3	2	
1	3	2	
2	3	2	
3	3	2	
4	3	2	
5	3	2	
6	3	2	
7	3	2	
8	3	2	
9	3	2	
10	3	2	
11	3	2	
12	3	2	
13	3	2	
14	3	2	
15	3	2	
16	3	2	
17	3	2	
18	3	2	
19	3	2	
20	3	2	
21	3	2	
22	3	2	
23	3	2	
24	3	2	
25	3	2	
26	3	2	
27	3	2	
28	3	2	
29	3	2	
30	3	2	
31	3	2	
32	3	2	
33	3	2	
34	3	2	
35	3	2	
36	3	2	
37	3	2	
38	3	2	
39	3	2	
40	3	2	
41	3	2	
42	3	2	
43	3	2	
44	3	2	
45	3	2	
46	3	2	
47	3	2	
48	3	2	
49	3	2	
50	3	2	
0	4	2	
1	4	2	
2	4	2	
3	4	2	
4	4	2	
5	4	2	
6	4	2	
7	4	2	
8	4	2	
9	4	2	
10	4	2	
11	4	2	
12	4	2	
13	4	2	
14	4	2	
15	4	2	
16	4	2	
17	4	2	
18	4	2	
19	4	2	
20	4	2	
21	4	2	
22	4	2	
23	4	2	
24	4	2	
25	4	2	
26	4	2	
27	4	2	
28	4	2	
29	4	2	
30	4	2	
31	4	2	
32	4	2	
33	4	2	
34	4	2	
35	4	2	
36	4	2	
37	4	2	
38	4	2	
39	4	2	
40	4	2	
41	4	2	
42	4	2	
43	4	2	
44	4	2	
45	4	2	
46	4	2	
47	4	2	
48	4	2	
49	4	2	
50	4	2	
0	5	2	
1	5	2	
2	5	2	
3	5	2	
4	5	2	
5	5	2	
6	5	2	
7	5	2	
8	5	2	
9	5	2	
10	5	2	
11	5	2	
12	5	2	
13	5	2	
14	5	2	
15	5	2	
16	5	2	
17	5	2	
18	5	2	
19	5	2	
20	5	2	
21	5	2	
22	5	2	
23	5	2	
24	5	2	
25	5	2	
26	5	2	
27	5	2	
28	5	2	
29	5	2	
30	5	2	
31	5	2	
32	5	2	
33	5	2	
34	5	2	
35	5	2	
36	5	2	
37	5	2	
38	5	2	
39	5	2	
40	5	2	
41	5	2	
42	5	2	
43	5	2	
44	5	2	
45	5	2	
46	5	2	
47	5	2	
48	5	2	
49	5	2	
50	5	2	
0	0	3	
1	0	3	
2	0	3	
3	0	3	
4	0	3	
5	0	3	
6	0	3	
7	0	3	
8	0	3	
9	0	3	
10	0	3	
11	0	3	
12	0	3	
13	0	3	
14	0	3	
15	0	3	
16	0	3	
17	0	3	
18	0	3	
19	0	3	
20	0	3	
21	0	3	
22	0	3	
23	0	3	
24	0	3	
25	0	3	
26	0	3	
27	0	3	
28	0	3	
29	0	3	
30	0	3	
31	0	3	
32	0	3	
33	0	3	
34	0	3	
35	0	3	
36	0	3	
37	0	3	
38	0	3	
39	0	3	
40	0	3	
41	0	3	
42	0	3	
43	0	3	
44	0	3	
45	0	3	
46	0	3	
47	0	3	
48	0	3	
49	0	3	
50	0	3	
0	1	3	
1	1	3	
2	1	3	
3	1	3	
4	1	3	
5	1	3	
6	1	3	
7	1	3	
8	1	3	
9	1	3	
10	1	3	
11	1	3	
12	1	3	
13	1	3	
14	1	3	
15	1	3	
16	1	3	
17	1	3	
18	1	3	
19	1	3	
20	1	3	
21	1	3	
22	1	3	
23	1	3	
24	1	3	
25	1	3	
26	1	3	
27	1	3	
28	1	3	
29	1	3	
30	1	3	
31	1	3	
32	1	3	
33	1	3	
34	1	3	
35	1	3	
36	1	3	
37	1	3	
38	1	3	
39	1	3	
40	1	3	
41	1	3	
42	1	3	
43	1	3	
44	1	3	
45	1	3	
46	1	3	
47	1	3	
48	1	3	
49	1	3	
50	1	3	
0	2	3	
1	2	3	
2	2	3	
3	2	3	
4	2	3	
5	2	3	
6	2	3	
7	2	3	
8	2	3	
9	2	3	
10	2	3	
11	2	3	
12	2	3	
13	2	3	
14	2	3	
15	2	3	
16	2	3	
17	2	3	
18	2	3	
19	2	3	
20	2	3	
21	2	3	
22	2	3	
23	2	3	
24	2	3	
25	2	3	
26	2	3	
27	2	3	
28	2	3	
29	2	3	
30	2	3	
31	2	3	
32	2	3	
33	2	3	
34	2	3	
35	2	3	
36	2	3	
37	2	3	
38	2	3	
39	2	3	
40	2	3	
41	2	3	
42	2	3	
43	2	3	
44	2	3	
45	2	3	
46	2	3	
47	2	3	
48	2	3	
49	2	3	
50	2	3	
0	3	3	
1	3	3	
2	3	3	
3	3	3	
4	3	3	
5	3	3	
6	3	3	
7	3	3	
8	3	3	
9	3	3	
10	3	3	
11	3	3	
12	3	3	
13	3	3	
14	3	3	
15	3	3	
16	3	3	
17	3	3	
18	3	3	
19	3	3	
20	3	3	
21	3	3	
22	3	3	
23	3	3	
24	3	3	
25	3	3	
26	3	3	
27	3	3	
28	3	3	
29	3	3	
30	3	3	
31	3	3	
32	3	3	
33	3	3	
34	3	3	
35	3	3	
36	3	3	
37	3	3	
38	3	3	
39	3	3	
40	3	3	
41	3	3	
42	3	3	
43	3	3	
44	3	3	
45	3	3	
46	3	3	
47	3	3	
48	3	3	
49	3	3	
50	3	3	
0	4	3	
1	4	3	
2	4	3	
3	4	3	
4	4	3	
5	4	3	
6	4	3	
7	4	3	
8	4	3	
9	4	3	
10	4	3	
11	4	3	
12	4	3	
13	4	3	
14	4	3	
15	4	3	
16	4	3	
17	4	3	
18	4	3	
19	4	3	
20	4	3	
21	4	3	
22	4	3	
23	4	3	
24	4	3	
25	4	3	
26	4	3	
27	4	3	
28	4	3	
29	4	3	
30	4	3	
31	4	3	
32	4	3	
33	4	3	
34	4	3	
35	4	3	
36	4	3	
37	4	3	
38	4	3	
39	4	3	
40	4	3	
41	4	3	
42	4	3	
43	4	3	
44	4	3	
45	4	3	
46	4	3	
47	4	3	
48	4	3	
49	4	3	
50	4	3	
0	5	3	
1	5	3	
2	5	3	
3	5	3	
4	5	3	
5	5	3	
6	5	3	
7	5	3	
8	5	3	
9	5	3	
10	5	3	
11	5	3	
12	5	3	
13	5	3	
14	5	3	
15	5	3	
16	5	3	
17	5	3	
18	5	3	
19	5	3	
20	5	3	
21	5	3	
22	5	3	
23	5	3	
24	5	3	
25	5	3	
26	5	3	
27	5	3	
28	5	3	
29	5	3	
30	5	3	
31	5	3	
32	5	3	
33	5	3	
34	5	3	
35	5	3	
36	5	3	
37	5	3	
38	5	3	
39	5	3	
40	5	3	
41	5	3	
42	5	3	
43	5	3	
44	5	3	
45	5	3	
46	5	3	
47	5	3	
48	5	3	
49	5	3	
50	5	3	
0	0	4	
1	0	4	
2	0	4	
3	0	4	
4	0	4	
5	0	4	
6	0	4	
7	0	4	
8	0	4	
9	0	4	
10	0	4	
11	0	4	
12	0	4	
13	0	4	
14	0	4	
15	0	4	
16	0	4	
17	0	4	
18	0	4	
19	0	4	
20	0	4	
21	0	4	
22	0	4	
23	0	4	
24	0	4	
25	0	4	
26	0	4	
27	0	4	
28	0	4	
29	0	4	
30	0	4	
31	0	4	
32	0	4	
33	0	4	
34	0	4	
35	0	4	
36	0	4	
37	0	4	
38	0	4	
39	0	4	
40	0	4	
41	0	4	
42	0	4	
43	0	4	
44	0	4	
45	0	4	
[...]
POINT_DATA	1836
VECTORS u float
-4.41297e-12	-1.52403e-12	-1.52403e-12	
-0.0314544	-0.016336	-0.016336	
-0.0563549	-0.0194174	-0.0194174	
-0.0816345	-0.0207635	-0.0207635	
-0.108401	-0.0209571	-0.0209571	
-0.136051	-0.0209157	-0.0209157	
-0.164115	-0.0208467	-0.0208467	
-0.192319	-0.0208061	-0.0208061	
-0.220556	-0.0207886	-0.0207886	
-0.248791	-0.0207829	-0.0207829	
-0.277022	-0.0207819	-0.0207819	
-0.305248	-0.020782	-0.020782	
-0.333472	-0.0207823	-0.0207823	
-0.361696	-0.0207825	-0.0207825	
-0.389919	-0.0207826	-0.0207826	
-0.418143	-0.0207826	-0.0207826	
-0.446367	-0.0207826	-0.0207826	
-0.47459	-0.0207826	-0.0207826	
-0.502814	-0.0207826	-0.0207826	
-0.531037	-0.0207826	-0.0207826	
-0.559261	-0.0207826	-0.0207826	
-0.587485	-0.0207826	-0.0207826	
-0.615708	-0.0207826	-0.0207826	
-0.643932	-0.0207826	-0.0207826	
-0.672156	-0.0207826	-0.0207826	
-0.700379	-0.0207826	-0.0207826	
-0.728603	-0.0207826	-0.0207826	
-0.756826	-0.0207826	-0.0207826	
-0.78505	-0.0207826	-0.0207826	
-0.813274	-0.0207826	-0.0207826	
-0.841497	-0.0207826	-0.0207826	
-0.869721	-0.0207826	-0.0207826	
-0.897944	-0.0207826	-0.0207826	
-0.926168	-0.0207826	-0.0207826	
-0.954392	-0.0207827	-0.0207827	
-0.982615	-0.0207827	-0.0207827	
-1.01084	-0.0207827	-0.0207827	
-1.03906	-0.0207824	-0.0207824	
-1.06728	-0.020781	-0.020781	
-1.0955	-0.0207772	-0.0207772	
-1.12374	-0.0207692	-0.0207692	
-1.152	-0.0207582	-0.0207582	
-1.18035	-0.0207597	-0.0207597	
-1.20887	-0.0208334	-0.0208334	
-1.23757	-0.0211383	-0.0211383	
-1.26601	-0.0219828	-0.0219828	
-1.29232	-0.0236623	-0.0236623	
-1.31204	-0.0253709	-0.0253709	
-1.32024	-0.023136	-0.023136	
-1.31859	-0.00941087	-0.00941087	
-1.31708	0.0139497	0.0139497	
-3.55987e-12	-2.69234e-13	-1.42022e-12	
-0.0269177	-0.00788706	-0.0164132	
-0.0537876	-0.0119546	-0.0199334	
-0.0805579	-0.01277	-0.0209416	
-0.108051	-0.0127899	-0.0210251	
-0.135983	-0.0126424	-0.0209306	
-0.164124	-0.0125397	-0.0208464	
-0.192337	-0.0124904	-0.0208033	
-0.220567	-0.0124727	-0.0207867	
-0.248796	-0.0124683	-0.0207821	
-0.277023	-0.0124682	-0.0207816	
-0.305248	-0.0124688	-0.020782	
-0.333472	-0.0124693	-0.0207823	
-0.361696	-0.0124695	-0.0207825	
-0.389919	-0.0124695	-0.0207826	
-0.418143	-0.0124696	-0.0207826	
-0.446367	-0.0124696	-0.0207826	
-0.47459	-0.0124696	-0.0207826	
-0.502814	-0.0124696	-0.0207826	
-0.531037	-0.0124696	-0.0207826	
-0.559261	-0.0124696	-0.0207826	
-0.587485	-0.0124696	-0.0207826	
-0.615708	-0.0124696	-0.0207826	
-0.643932	-0.0124696	-0.0207826	
-0.672156	-0.0124696	-0.0207826	
-0.700379	-0.0124696	-0.0207826	
-0.728603	-0.0124696	-0.0207826	
-0.756826	-0.0124696	-0.0207826	
-0.78505	-0.0124696	-0.0207826	
-0.813274	-0.0124696	-0.0207826	
-0.841497	-0.0124696	-0.0207826	
-0.869721	-0.0124696	-0.0207826	
-0.897944	-0.0124696	-0.0207826	
-0.926168	-0.0124696	-0.0207826	
-0.954392	-0.0124696	-0.0207827	
-0.982615	-0.0124697	-0.0207827	
-1.01084	-0.0124698	-0.0207828	
-1.03906	-0.0124696	-0.0207825	
-1.06728	-0.0124684	-0.0207813	
-1.09551	-0.0124643	-0.0207776	
-1.12374	-0.012454	-0.0207688	
-1.15198	-0.0124347	-0.0207539	
-1.18027	-0.0124155	-0.0207437	
-1.20864	-0.0124507	-0.0207908	
-1.2371	-0.0127199	-0.0210542	
-1.26545	-0.0136444	-0.0218887	
-1.2928	-0.0158557	-0.0238268	
-1.31659	-0.0191492	-0.0269105	
-1.33186	-0.0194488	-0.0275451	
-1.33523	-0.00929439	-0.0149908	
-1.33181	0.0123734	0.0201481	
-3.48809e-12	-1.0245e-13	-1.39272e-12	
-0.0264969	-0.00241922	-0.0168797	
-0.0523685	-0.00387826	-0.0202557	
-0.0796228	-0.00433616	-0.0211977	
-0.107614	-0.00431065	-0.0211359	
-0.135828	-0.00424027	-0.0209673	
-0.164087	-0.00418934	-0.0208536	
-0.192336	-0.00416605	-0.0208023	
-0.220572	-0.00415779	-0.0207848	
-0.2488	-0.00415585	-0.0207809	
-0.277025	-0.00415584	-0.0207811	
-0.305249	-0.00415615	-0.0207818	
-0.333472	-0.00415637	-0.0207823	
-0.361696	-0.00415648	-0.0207825	
-0.389919	-0.00415651	-0.0207826	
-0.418143	-0.00415652	-0.0207826	
-0.446367	-0.00415652	-0.0207826	
-0.47459	-0.00415652	-0.0207826	
-0.502814	-0.00415652	-0.0207826	
-0.531037	-0.00415652	-0.0207826	
-0.559261	-0.00415651	-0.0207826	
-0.587485	-0.00415651	-0.0207826	
-0.615708	-0.00415651	-0.0207826	
-0.643932	-0.00415651	-0.0207826	
-0.672156	-0.00415651	-0.0207826	
-0.700379	-0.00415651	-0.0207826	
-0.728603	-0.00415651	-0.0207826	
-0.756826	-0.00415651	-0.0207826	
-0.78505	-0.00415651	-0.0207826	
-0.813274	-0.00415651	-0.0207826	
-0.841497	-0.00415651	-0.0207826	
-0.869721	-0.00415651	-0.0207826	
-0.897944	-0.00415651	-0.0207826	
-0.926168	-0.00415652	-0.0207826	
-0.954392	-0.00415654	-0.0207827	
-0.982615	-0.00415658	-0.0207828	
-1.01084	-0.00415662	-0.0207829	
-1.03906	-0.00415656	-0.0207828	
-1.06728	-0.00415601	-0.0207816	
-1.09551	-0.00415408	-0.0207775	
-1.12372	-0.00414912	-0.0207666	
-1.15194	-0.00413965	-0.0207449	
-1.18018	-0.00412933	-0.0207184	
-1.20847	-0.00414319	-0.0207364	
-1.23694	-0.004266	-0.0209746	
-1.26582	-0.00470019	-0.0219051	
-1.2952	-0.00576176	-0.0244925	
-1.32388	-0.00747493	-0.0302654	
-1.34408	-0.00796085	-0.0382369	
-1.34039	-0.00423126	-0.0210957	
-1.34154	0.00442363	0.0294127	
-3.48809e-12	1.0245e-13	-1.39272e-12	
-0.0264969	0.00241922	-0.0168797	
-0.0523685	0.00387826	-0.0202557	
-0.0796228	0.00433616	-0.0211977	
-0.107614	0.00431065	-0.0211359	
-0.135828	0.00424028	-0.0209673	
-0.164087	0.00418934	-0.0208536	
-0.192336	0.00416605	-0.0208023	
-0.220572	0.0041578	-0.0207848	
-0.2488	0.00415586	-0.0207809	
-0.277025	0.00415584	-0.0207811	
-0.305249	0.00415616	-0.0207818	
-0.333472	0.00415638	-0.0207823	
-0.361696	0.00415648	-0.0207825	
-0.389919	0.00415652	-0.0207826	
-0.418143	0.00415653	-0.0207826	
-0.446367	0.00415653	-0.0207826	
-0.47459	0.00415653	-0.0207826	
-0.502814	0.00415653	-0.0207826	
-0.531037	0.00415653	-0.0207826	
-0.559261	0.00415653	-0.0207826	
-0.587485	0.00415653	-0.0207826	
-0.615708	0.00415653	-0.0207826	
-0.643932	0.00415653	-0.0207826	
-0.672156	0.00415654	-0.0207826	
-0.700379	0.00415654	-0.0207826	
-0.728603	0.00415654	-0.0207826	
-0.756826	0.00415654	-0.0207826	
-0.78505	0.00415654	-0.0207826	
-0.813274	0.00415654	-0.0207826	
-0.841497	0.00415654	-0.0207826	
-0.869721	0.00415654	-0.0207826	
-0.897944	0.00415654	-0.0207826	
-0.926168	0.00415655	-0.0207826	
-0.954392	0.00415657	-0.0207827	
-0.982615	0.00415662	-0.0207828	
-1.01084	0.00415666	-0.0207829	
-1.03906	0.00415659	-0.0207828	
-1.06728	0.00415605	-0.0207816	
-1.09551	0.00415412	-0.0207775	
-1.12372	0.00414916	-0.0207666	
-1.15194	0.00413968	-0.0207449	
-1.18018	0.00412937	-0.0207184	
-1.20847	0.00414322	-0.0207364	
-1.23694	0.00426603	-0.0209746	
-1.26582	0.00470022	-0.0219051	
-1.2952	0.0057618	-0.0244925	
-1.32388	0.00747496	-0.0302654	
-1.34408	0.00796088	-0.0382369	
-1.34039	0.00423129	-0.0210957	
-1.34154	-0.0044236	0.0294127	
-3.55987e-12	2.69234e-13	-1.42022e-12	
-0.0269177	0.00788706	-0.0164132	
-0.0537876	0.0119546	-0.0199334	
-0.0805579	0.01277	-0.0209416	
-0.108051	0.0127899	-0.0210251	
-0.135983	0.0126424	-0.0209306	
-0.164124	0.0125397	-0.0208464	
-0.192337	0.0124904	-0.0208033	
-0.220567	0.0124727	-0.0207867	
-0.248796	0.0124684	-0.0207821	
-0.277023	0.0124682	-0.0207816	
-0.305248	0.0124688	-0.020782	
-0.333472	0.0124693	-0.0207823	
-0.361696	0.0124695	-0.0207825	
-0.389919	0.0124696	-0.0207826	
-0.418143	0.0124696	-0.0207826	
-0.446367	0.0124696	-0.0207826	
-0.47459	0.0124696	-0.0207826	
-0.502814	0.0124696	-0.0207826	
-0.531037	0.0124696	-0.0207826	
-0.559261	0.0124696	-0.0207826	
-0.587485	0.0124696	-0.0207826	
-0.615708	0.0124696	-0.0207826	
-0.643932	0.0124696	-0.0207826	
-0.672156	0.0124696	-0.0207826	
-0.700379	0.0124696	-0.0207826	
-0.728603	0.0124696	-0.0207826	
-0.756826	0.0124696	-0.0207826	
-0.78505	0.0124696	-0.0207826	
-0.813274	0.0124696	-0.0207826	
-0.841497	0.0124696	-0.0207826	
-0.869721	0.0124696	-0.0207826	
-0.897944	0.0124696	-0.0207826	
-0.926168	0.0124696	-0.0207826	
-0.954392	0.0124697	-0.0207827	
-0.982615	0.0124697	-0.0207827	
-1.01084	0.0124698	-0.0207828	
-1.03906	0.0124697	-0.0207825	
-1.06728	0.0124685	-0.0207813	
-1.09551	0.0124644	-0.0207776	
-1.12374	0.012454	-0.0207688	
-1.15198	0.0124348	-0.0207539	
-1.18027	0.0124155	-0.0207437	
-1.20864	0.0124508	-0.0207908	
-1.2371	0.0127199	-0.0210542	
-1.26545	0.0136444	-0.0218887	
-1.2928	0.0158557	-0.0238268	
-1.31659	0.0191492	-0.0269105	
-1.33186	0.0194488	-0.0275451	
-1.33523	0.00929442	-0.0149908	
-1.33181	-0.0123734	0.0201481	
-4.41297e-12	1.52403e-12	-1.52403e-12	
-0.0314544	0.016336	-0.016336	
-0.0563549	0.0194174	-0.0194174	
-0.0816345	0.0207635	-0.0207635	
-0.108401	0.0209571	-0.0209571	
-0.136051	0.0209157	-0.0209157	
-0.164115	0.0208467	-0.0208467	
-0.192319	0.0208061	-0.0208061	
-0.220556	0.0207886	-0.0207886	
-0.248791	0.020783	-0.0207829	
-0.277022	0.0207819	-0.0207819	
-0.305248	0.020782	-0.020782	
-0.333472	0.0207823	-0.0207823	
-0.361696	0.0207825	-0.0207825	
-0.389919	0.0207826	-0.0207826	
-0.418143	0.0207826	-0.0207826	
-0.446367	0.0207826	-0.0207826	
-0.47459	0.0207826	-0.0207826	
-0.502814	0.0207826	-0.0207826	
-0.531037	0.0207826	-0.0207826	
-0.559261	0.0207826	-0.0207826	
-0.587485	0.0207826	-0.0207826	
-0.615708	0.0207826	-0.0207826	
-0.643932	0.0207826	-0.0207826	
-0.672156	0.0207826	-0.0207826	
-0.700379	0.0207826	-0.0207826	
-0.728603	0.0207826	-0.0207826	
-0.756826	0.0207826	-0.0207826	
-0.78505	0.0207826	-0.0207826	
-0.813274	0.0207826	-0.0207826	
-0.841497	0.0207826	-0.0207826	
-0.869721	0.0207826	-0.0207826	
-0.897944	0.0207826	-0.0207826	
-0.926168	0.0207827	-0.0207826	
-0.954392	0.0207827	-0.0207827	
-0.982615	0.0207827	-0.0207827	
-1.01084	0.0207827	-0.0207827	
-1.03906	0.0207824	-0.0207824	
-1.06728	0.020781	-0.020781	
-1.0955	0.0207772	-0.0207772	
-1.12374	0.0207693	-0.0207692	
-1.152	0.0207582	-0.0207582	
-1.18035	0.0207598	-0.0207597	
-1.20887	0.0208334	-0.0208334	
-1.23757	0.0211383	-0.0211383	
-1.26601	0.0219829	-0.0219828	
-1.29232	0.0236624	-0.0236623	
-1.31204	0.0253709	-0.0253709	
-1.32024	0.0231361	-0.023136	
-1.31859	0.0094109	-0.00941087	
-1.31708	-0.0139496	0.0139497	
-3.55987e-12	-1.42022e-12	-2.69234e-13	
-0.0269177	-0.0164132	-0.00788706	
-0.0537876	-0.0199334	-0.0119546	
-0.0805579	-0.0209416	-0.01277	
-0.108051	-0.0210251	-0.0127899	
-0.135983	-0.0209306	-0.0126424	
-0.164124	-0.0208464	-0.0125397	
-0.192337	-0.0208033	-0.0124904	
-0.220567	-0.0207867	-0.0124727	
-0.248796	-0.0207821	-0.0124683	
-0.277023	-0.0207816	-0.0124682	
-0.305248	-0.020782	-0.0124688	
-0.333472	-0.0207823	-0.0124693	
-0.361696	-0.0207825	-0.0124695	
-0.389919	-0.0207826	-0.0124695	
-0.418143	-0.0207826	-0.0124696	
-0.446367	-0.0207826	-0.0124696	
-0.47459	-0.0207826	-0.0124696	
-0.502814	-0.0207826	-0.0124696	
-0.531037	-0.0207826	-0.0124696	
-0.559261	-0.0207826	-0.0124696	
-0.587485	-0.0207826	-0.0124696	
-0.615708	-0.0207826	-0.0124696	
-0.643932	-0.0207826	-0.0124696	
-0.672156	-0.0207826	-0.0124696	
-0.700379	-0.0207826	-0.0124696	
-0.728603	-0.0207826	-0.0124696	
-0.756826	-0.0207826	-0.0124696	
-0.78505	-0.0207826	-0.0124696	
-0.813274	-0.0207826	-0.0124696	
-0.841497	-0.0207826	-0.0124696	
-0.869721	-0.0207826	-0.0124696	
-0.897944	-0.0207826	-0.0124696	
-0.926168	-0.0207826	-0.0124696	
-0.954392	-0.0207827	-0.0124696	
-0.982615	-0.0207827	-0.0124697	
-1.01084	-0.0207828	-0.0124698	
-1.03906	-0.0207825	-0.0124696	
-1.06728	-0.0207813	-0.0124684	
-1.09551	-0.0207776	-0.0124643	
-1.12374	-0.0207688	-0.012454	
-1.15198	-0.0207539	-0.0124347	
-1.18027	-0.0207437	-0.0124155	
-1.20864	-0.0207908	-0.0124507	
-1.2371	-0.0210542	-0.0127199	
-1.26545	-0.0218887	-0.0136444	
-1.2928	-0.0238268	-0.0158557	
-1.31659	-0.0269105	-0.0191492	
-1.33186	-0.0275451	-0.0194488	
-1.33523	-0.0149908	-0.00929439	
-1.33181	0.0201481	0.0123734	
-2.7023e-12	-2.7486e-13	-2.7486e-13	
-0.0222796	-0.00788819	-0.00788819	
-0.0512041	-0.0119759	-0.0119759	
-0.0795709	-0.0127823	-0.0127823	
-0.107753	-0.0127854	-0.0127854	
-0.135939	-0.0126388	-0.0126388	
-0.164142	-0.0125374	-0.0125374	
-0.192357	-0.0124894	-0.0124894	
-0.220578	-0.0124724	-0.0124724	
-0.248801	-0.0124683	-0.0124683	
-0.277025	-0.0124682	-0.0124682	
-0.305248	-0.0124688	-0.0124688	
-0.333472	-0.0124693	-0.0124693	
-0.361696	-0.0124695	-0.0124695	
-0.389919	-0.0124696	-0.0124696	
-0.418143	-0.0124696	-0.0124696	
-0.446367	-0.0124696	-0.0124696	
-0.47459	-0.0124696	-0.0124696	
-0.502814	-0.0124696	-0.0124696	
-0.531037	-0.0124696	-0.0124696	
-0.559261	-0.0124696	-0.0124696	
-0.587485	-0.0124696	-0.0124696	
-0.615708	-0.0124696	-0.0124696	
-0.643932	-0.0124696	-0.0124696	
-0.672156	-0.0124696	-0.0124696	
-0.700379	-0.0124696	-0.0124696	
-0.728603	-0.0124696	-0.0124696	
-0.756826	-0.0124696	-0.0124696	
-0.78505	-0.0124696	-0.0124696	
-0.813274	-0.0124696	-0.0124696	
-0.841497	-0.0124696	-0.0124696	
-0.869721	-0.0124696	-0.0124696	
-0.897944	-0.0124696	-0.0124696	
-0.926168	-0.0124696	-0.0124696	
-0.954392	-0.0124696	-0.0124696	
-0.982615	-0.0124697	-0.0124697	
-1.01084	-0.0124698	-0.0124698	
-1.03906	-0.0124696	-0.0124696	
-1.06729	-0.0124685	-0.0124685	
-1.09551	-0.0124645	-0.0124645	
-1.12374	-0.0124545	-0.0124545	
-1.15196	-0.0124355	-0.0124355	
-1.18019	-0.0124155	-0.0124155	
-1.20842	-0.0124457	-0.0124457	
-1.23661	-0.0126957	-0.0126957	
-1.2647	-0.0135714	-0.0135714	
-1.29255	-0.0157383	-0.0157383	
-1.32015	-0.019559	-0.019559	
-1.34646	-0.022753	-0.022753	
-1.3666	-0.0142993	-0.0142993	
-1.37862	0.0181033	0.0181033	
-2.62173e-12	-1.04032e-13	-2.81786e-13	
-0.021841	-0.00237736	-0.00807225	
-0.0498056	-0.00384195	-0.0122114	
-0.0786505	-0.00430997	-0.01293	
-0.107348	-0.00429787	-0.0128522	
-0.135803	-0.00423427	-0.012659	
-0.164112	-0.00418755	-0.0125405	
-0.192358	-0.0041657	-0.0124882	
-0.220584	-0.00415786	-0.0124711	
-0.248805	-0.00415596	-0.0124675	
-0.277026	-0.0041559	-0.0124679	
-0.305249	-0.00415618	-0.0124687	
-0.333472	-0.00415638	-0.0124692	
-0.361696	-0.00415648	-0.0124695	
-0.389919	-0.00415651	-0.0124696	
-0.418143	-0.00415652	-0.0124696	
-0.446367	-0.00415652	-0.0124696	
-0.47459	-0.00415652	-0.0124696	
-0.502814	-0.00415652	-0.0124696	
-0.531037	-0.00415652	-0.0124696	
-0.559261	-0.00415651	-0.0124696	
-0.587485	-0.00415651	-0.0124696	
-0.615708	-0.00415651	-0.0124696	
-0.643932	-0.00415651	-0.0124696	
-0.672156	-0.00415651	-0.0124696	
-0.700379	-0.00415651	-0.0124696	
-0.728603	-0.00415651	-0.0124696	
-0.756826	-0.00415651	-0.0124696	
-0.78505	-0.00415651	-0.0124696	
-0.813274	-0.00415651	-0.0124696	
-0.841497	-0.00415651	-0.0124696	
-0.869721	-0.00415651	-0.0124696	
-0.897944	-0.00415651	-0.0124696	
-0.926168	-0.00415652	-0.0124696	
-0.954392	-0.00415654	-0.0124696	
-0.982615	-0.00415657	-0.0124697	
-1.01084	-0.00415661	-0.0124699	
-1.03906	-0.00415654	-0.0124698	
-1.06729	-0.00415602	-0.0124687	
-1.09551	-0.00415419	-0.0124646	
-1.12373	-0.00414959	-0.0124534	
-1.15193	-0.00414096	-0.0124303	
-1.18011	-0.00413206	-0.0123996	
-1.20825	-0.00414654	-0.0124073	
-1.2364	-0.00426196	-0.0126282	
-1.26482	-0.00466189	-0.0135377	
-1.29432	-0.00563498	-0.0161996	
-1.32667	-0.00732449	-0.0222728	
-1.36535	-0.00917614	-0.032812	
-1.39903	-0.00639708	-0.0399943	
-1.39098	0.0113871	0.0418096	
-2.62173e-12	1.04032e-13	-2.81786e-13	
-0.021841	0.00237736	-0.00807225	
-0.0498056	0.00384195	-0.0122114	
-0.0786505	0.00430997	-0.01293	
-0.107348	0.00429787	-0.0128522	
-0.135803	0.00423427	-0.012659	
-0.164112	0.00418756	-0.0125405	
-0.192358	0.0041657	-0.0124882	
-0.220584	0.00415786	-0.0124711	
-0.248805	0.00415596	-0.0124675	
-0.277026	0.00415591	-0.0124679	
-0.305249	0.00415618	-0.0124687	
-0.333472	0.00415639	-0.0124692	
-0.361696	0.00415648	-0.0124695	
-0.389919	0.00415652	-0.0124696	
-0.418143	0.00415653	-0.0124696	
-0.446367	0.00415653	-0.0124696	
-0.47459	0.00415653	-0.0124696	
-0.502814	0.00415653	-0.0124696	
-0.531037	0.00415653	-0.0124696	
-0.559261	0.00415653	-0.0124696	
-0.587485	0.00415653	-0.0124696	
-0.615708	0.00415653	-0.0124696	
-0.643932	0.00415653	-0.0124696	
-0.672156	0.00415654	-0.0124696	
-0.700379	0.00415654	-0.0124696	
-0.728603	0.00415654	-0.0124696	
-0.756826	0.00415654	-0.0124696	
-0.78505	0.00415654	-0.0124696	
-0.813274	0.00415654	-0.0124696	
-0.841497	0.00415654	-0.0124696	
-0.869721	0.00415654	-0.0124696	
-0.897944	0.00415654	-0.0124696	
-0.926168	0.00415655	-0.0124696	
-0.954392	0.00415657	-0.0124696	
-0.982615	0.00415661	-0.0124697	
-1.01084	0.00415665	-0.0124699	
-1.03906	0.00415658	-0.0124698	
-1.06729	0.00415605	-0.0124687	
-1.09551	0.00415423	-0.0124646	
-1.12373	0.00414963	-0.0124534	
-1.15193	0.004141	-0.0124303	
-1.18011	0.0041321	-0.0123996	
-1.20825	0.00414657	-0.0124073	
-1.2364	0.00426199	-0.0126282	
-1.26482	0.00466193	-0.0135377	
-1.29432	0.00563502	-0.0161996	
-1.32667	0.00732452	-0.0222728	
-1.36535	0.00917617	-0.032812	
-1.39903	0.00639711	-0.0399943	
-1.39098	-0.0113871	0.0418096	
-2.7023e-12	2.7486e-13	-2.7486e-13	
-0.0222796	0.00788819	-0.00788819	
-0.0512041	0.0119759	-0.0119759	
-0.0795709	0.0127823	-0.0127823	
-0.107753	0.0127854	-0.0127854	
-0.135939	0.0126388	-0.0126388	
-0.164142	0.0125374	-0.0125374	
-0.192357	0.0124894	-0.0124894	
-0.220578	0.0124724	-0.0124724	
-0.248801	0.0124683	-0.0124683	
-0.277025	0.0124682	-0.0124682	
-0.305248	0.0124688	-0.0124688	
-0.333472	0.0124693	-0.0124693	
-0.361696	0.0124695	-0.0124695	
-0.389919	0.0124696	-0.0124696	
-0.418143	0.0124696	-0.0124696	
-0.446367	0.0124696	-0.0124696	
-0.47459	0.0124696	-0.0124696	
-0.502814	0.0124696	-0.0124696	
-0.531037	0.0124696	-0.0124696	
-0.559261	0.0124696	-0.0124696	
-0.587485	0.0124696	-0.0124696	
-0.615708	0.0124696	-0.0124696	
-0.643932	0.0124696	-0.0124696	
-0.672156	0.0124696	-0.0124696	
-0.700379	0.0124696	-0.0124696	
-0.728603	0.0124696	-0.0124696	
-0.756826	0.0124696	-0.0124696	
-0.78505	0.0124696	-0.0124696	
-0.813274	0.0124696	-0.0124696	
-0.841497	0.0124696	-0.0124696	
-0.869721	0.0124696	-0.0124696	
-0.897944	0.0124696	-0.0124696	
-0.926168	0.0124696	-0.0124696	
-0.954392	0.0124697	-0.0124696	
-0.982615	0.0124697	-0.0124697	
-1.01084	0.0124698	-0.0124698	
-1.03906	0.0124697	-0.0124696	
-1.06729	0.0124685	-0.0124685	
-1.09551	0.0124646	-0.0124645	
-1.12374	0.0124545	-0.0124545	
-1.15196	0.0124355	-0.0124355	
-1.18019	0.0124155	-0.0124155	
-1.20842	0.0124457	-0.0124457	
-1.23661	0.0126957	-0.0126957	
-1.2647	0.0135714	-0.0135714	
-1.29255	0.0157383	-0.0157383	
-1.32015	0.019559	-0.019559	
-1.34646	0.022753	-0.022753	
-1.3666	0.0142994	-0.0142993	
-1.37862	-0.0181033	0.0181033	
-3.55987e-12	1.42022e-12	-2.69234e-13	
-0.0269177	0.0164132	-0.00788706	
-0.0537876	0.0199334	-0.0119546	
-0.0805579	0.0209416	-0.01277	
-0.108051	0.0210251	-0.0127899	
-0.135983	0.0209306	-0.0126424	
-0.164124	0.0208464	-0.0125397	
-0.192337	0.0208033	-0.0124904	
-0.220567	0.0207867	-0.0124727	
-0.248796	0.0207821	-0.0124683	
-0.277023	0.0207816	-0.0124682	
-0.305248	0.020782	-0.0124688	
-0.333472	0.0207823	-0.0124693	
-0.361696	0.0207825	-0.0124695	
-0.389919	0.0207826	-0.0124695	
-0.418143	0.0207826	-0.0124696	
-0.446367	0.0207826	-0.0124696	
-0.47459	0.0207826	-0.0124696	
-0.502814	0.0207826	-0.0124696	
-0.531037	0.0207826	-0.0124696	
-0.559261	0.0207826	-0.0124696	
-0.587485	0.0207826	-0.0124696	
-0.615708	0.0207826	-0.0124696	
-0.643932	0.0207826	-0.0124696	
-0.672156	0.0207826	-0.0124696	
-0.700379	0.0207826	-0.0124696	
-0.728603	0.0207826	-0.0124696	
-0.756826	0.0207826	-0.0124696	
-0.78505	0.0207826	-0.0124696	
-0.813274	0.0207826	-0.0124696	
-0.841497	0.0207826	-0.0124696	
-0.869721	0.0207826	-0.0124696	
-0.897944	0.0207826	-0.0124696	
-0.926168	0.0207827	-0.0124696	
-0.954392	0.0207827	-0.0124696	
-0.982615	0.0207828	-0.0124697	
-1.01084	0.0207828	-0.0124698	
-1.03906	0.0207826	-0.0124696	
-1.06728	0.0207814	-0.0124684	
-1.09551	0.0207776	-0.0124643	
-1.12374	0.0207688	-0.012454	
-1.15198	0.0207539	-0.0124347	
-1.18027	0.0207437	-0.0124155	
-1.20864	0.0207908	-0.0124507	
-1.2371	0.0210542	-0.0127199	
-1.26545	0.0218887	-0.0136444	
-1.2928	0.0238268	-0.0158557	
-1.31659	0.0269105	-0.0191492	
-1.33186	0.0275451	-0.0194488	
-1.33523	0.0149908	-0.00929439	
-1.33181	-0.0201481	0.0123734	
-3.48809e-12	-1.39272e-12	-1.0245e-13	