# vtk DataFile Version 4.1
vtk output
ASCII
DATASET UNSTRUCTURED_GRID

POINTS	44	float
0	0	0	
0	0	1	
0	1	1	
0	1	0	
1	0	0	
1	0	1	
1	1	1	
1	1	0	
2	0	0	
2	0	1	
2	1	1	
2	1	0	
3	0	0	
3	0	1	
3	1	1	
3	1	0	
4	0	0	
4	0	1	
4	1	1	
4	1	0	
5	0	0	
5	0	1	
5	1	1	
5	1	0	
6	0	0	
6	0	1	
6	1	1	
6	1	0	
7	0	0	
7	0	1	
7	1	1	
7	1	0	
8	0	0	
8	0	1	
8	1	1	
8	1	0	
9	0	0	
9	0	1	
9	1	1	
9	1	0	
10	0	0	
10	0	1	
10	1	1	
10	1	0	

CELLS 10	90
8	0	4	7	3	1	5	6	2	
8	4	8	11	7	5	9	10	6	
8	8	12	15	11	9	13	14	10	
8	12	16	19	15	13	17	18	14	
8	16	20	23	19	17	21	22	18	
8	20	24	27	23	21	25	26	22	
8	24	28	31	27	25	29	30	26	
8	28	32	35	31	29	33	34	30	
8	32	36	39	35	33	37	38	34	
8	36	40	43	39	37	41	42	38	

CELL_TYPES	10
12
12
12
12
12
12
12
12
12
12

POINT_DATA	44
VECTORS u float
-1.57229e-10	-3.90616e-11	-2.21042e-11	
-2.93535e-11	-1.74661e-11	5.66087e-11	
-2.93535e-11	1.74661e-11	5.66087e-11	
-1.57229e-10	3.90616e-11	-2.21042e-11	
-0.294952	-0.0506107	-0.227773	
0.16343	0.0365096	-0.34394	
0.16343	-0.0365096	-0.34394	
-0.294952	0.0506107	-0.227773	
-0.673413	-0.0219521	-0.761456	
0.0640287	0.0219541	-1.09157	
0.0640287	-0.0219541	-1.09157	
-0.673413	0.0219521	-0.761456	
-1.17885	-0.0153904	-1.50412	
-0.307384	0.0178411	-2.02477	
-0.307384	-0.0178411	-2.02477	
-1.17885	0.0153904	-1.50412	
-1.81399	-0.00874524	-2.36515	
-0.877568	0.013197	-3.03047	
-0.877568	-0.013197	-3.03047	
-1.81399	0.00874524	-2.36515	
-2.55253	-0.00483581	-3.29279	
-1.58582	0.0100513	-4.06046	
-1.58582	-0.0100513	-4.06046	
-2.55253	0.00483581	-3.29279	
-3.36707	-0.00212586	-4.25785	
-2.38625	0.00772463	-5.09544	
-2.38625	-0.00772463	-5.09544	
-3.36707	0.00212586	-4.25785	
-4.23445	-0.000277148	-5.2446	
-3.24713	0.00604708	-6.12839	
-3.24713	-0.00604708	-6.12839	
-4.23445	0.000277148	-5.2446	
-5.1367	0.00103774	-6.24452	
-4.14642	0.00481084	-7.15722	
-4.14642	-0.00481084	-7.15722	
-5.1367	-0.00103774	-6.24452	
-6.05988	0.00212329	-7.25303	
-5.06834	0.00375859	-8.18149	
-5.06834	-0.00375859	-8.18149	
-6.05988	-0.00212329	-7.25303	
-6.99281	0.0026601	-8.26761	
-6.00091	0.00323109	-9.20123	
-6.00091	-0.00323109	-9.20123	
-6.99281	-0.0026601	-8.26761	
