# vtk DataFile Version 4.1
vtk output
ASCII
DATASET UNSTRUCTURED_GRID

POINTS	7701	float
0	0	0	
0	1	0	
0	2	0	
0	3	0	
0	4	0	
0	5	0	
0	6	0	
0	7	0	
0	8	0	
0	9	0	
0	10	0	
0	11	0	
0	12	0	
0	13	0	
0	14	0	
0	15	0	
0	16	0	
0	17	0	
0	18	0	
0	19	0	
0	20	0	
0	21	0	
0	22	0	
0	23	0	
0	24	0	
0	25	0	
0	26	0	
0	27	0	
0	28	0	
0	29	0	
0	30	0	
0	31	0	
0	32	0	
0	33	0	
0	34	0	
0	35	0	
0	36	0	
0	37	0	
0	38	0	
0	39	0	
0	40	0	
0	41	0	
0	42	0	
0	43	0	
0	44	0	
0	45	0	
0	46	0	
0	47	0	
0	48	0	
0	49	0	
0	50	0	
1	0	0	
1	1	0	
1	2	0	
1	3	0	
1	4	0	
1	5	0	
1	6	0	
1	7	0	
1	8	0	
1	9	0	
1	10	0	
1	11	0	
1	12	0	
1	13	0	
1	14	0	
1	15	0	
1	16	0	
1	17	0	
1	18	0	
1	19	0	
1	20	0	
1	21	0	
1	22	0	
1	23	0	
1	24	0	
1	25	0	
1	26	0	
1	27	0	
1	28	0	
1	29	0	
1	30	0	
1	31	0	
1	32	0	
1	33	0	
1	34	0	
1	35	0	
1	36	0	
1	37	0	
1	38	0	
1	39	0	
1	40	0	
1	41	0	
1	42	0	
1	43	0	
1	44	0	
1	45	0	
1	46	0	
1	47	0	
1	48	0	
1	49	0	
1	50	0	
2	0	0	
2	1	0	
2	2	0	
2	3	0	
2	4	0	
2	5	0	
2	6	0	
2	7	0	
2	8	0	
2	9	0	
2	10	0	
2	11	0	
2	12	0	
2	13	0	
2	14	0	
2	15	0	
2	16	0	
2	17	0	
2	18	0	
2	19	0	
2	20	0	
2	21	0	
2	22	0	
2	23	0	
2	24	0	
2	25	0	
2	26	0	
2	27	0	
2	28	0	
2	29	0	
2	30	0	
2	31	0	
2	32	0	
2	33	0	
2	34	0	
2	35	0	
2	36	0	
2	37	0	
2	38	0	
2	39	0	
2	40	0	
2	41	0	
2	42	0	
2	43	0	
2	44	0	
2	45	0	
2	46	0	
2	47	0	
2	48	0	
2	49	0	
2	50	0	
3	0	0	
3	1	0	
3	2	0	
3	3	0	
3	4	0	
3	5	0	
3	6	0	
3	7	0	
3	8	0	
3	9	0	
3	10	0	
3	11	0	
3	12	0	
3	13	0	
3	14	0	
3	15	0	
3	16	0	
3	17	0	
3	18	0	
3	19	0	
3	20	0	
3	21	0	
3	22	0	
3	23	0	
3	24	0	
3	25	0	
3	26	0	
3	27	0	
3	28	0	
3	29	0	
3	30	0	
3	31	0	
3	32	0	
3	33	0	
3	34	0	
3	35	0	
3	36	0	
3	37	0	
3	38	0	
3	39	0	
3	40	0	
3	41	0	
3	42	0	
3	43	0	
3	44	0	
3	45	0	
3	46	0	
3	47	0	
3	48	0	
3	49	0	
3	50	0	
4	0	0	
4	1	0	
4	2	0	
4	3	0	
4	4	0	
4	5	0	
4	6	0	
4	7	0	
4	8	0	
4	9	0	
4	10	0	
4	11	0	
4	12	0	
4	13	0	
4	14	0	
4	15	0	
4	16	0	
4	17	0	
4	18	0	
4	19	0	
4	20	0	
4	21	0	
4	22	0	
4	23	0	
4	24	0	
4	25	0	
4	26	0	
4	27	0	
4	28	0	
4	29	0	
4	30	0	
4	31	0	
4	32	0	
4	33	0	
4	34	0	
4	35	0	
4	36	0	
4	37	0	
4	38	0	
4	39	0	
4	40	0	
4	41	0	
4	42	0	
4	43	0	
4	44	0	
4	45	0	
4	46	0	
4	47	0	
4	48	0	
4	49	0	
4	50	0	
5	0	0	
5	1	0	
5	2	0	
5	3	0	
5	4	0	
5	5	0	
5	6	0	
5	7	0	
5	8	0	
5	9	0	
5	10	0	
5	11	0	
5	12	0	
5	13	0	
5	14	0	
5	15	0	
5	16	0	
5	17	0	
5	18	0	
5	19	0	
5	20	0	
5	21	0	
5	22	0	
5	23	0	
5	24	0	
5	25	0	
5	26	0	
5	27	0	
5	28	0	
5	29	0	
5	30	0	
5	31	0	
5	32	0	
5	33	0	
5	34	0	
5	35	0	
5	36	0	
5	37	0	
5	38	0	
5	39	0	
5	40	0	
5	41	0	
5	42	0	
5	43	0	
5	44	0	
5	45	0	
5	46	0	
5	47	0	
5	48	0	
5	49	0	
5	50	0	
6	0	0	
6	1	0	
6	2	0	
6	3	0	
6	4	0	
6	5	0	
6	6	0	
6	7	0	
6	8	0	
6	9	0	
6	10	0	
6	11	0	
6	12	0	
6	13	0	
6	14	0	
6	15	0	
6	16	0	
6	17	0	
6	18	0	
6	19	0	
6	20	0	
6	21	0	
6	22	0	
6	23	0	
6	24	0	
6	25	0	
6	26	0	
6	27	0	
6	28	0	
6	29	0	
6	30	0	
6	31	0	
6	32	0	
6	33	0	
6	34	0	
6	35	0	
6	36	0	
6	37	0	
6	38	0	
6	39	0	
6	40	0	
6	41	0	
6	42	0	
6	43	0	
6	44	0	
6	45	0	
6	46	0	
6	47	0	
6	48	0	
6	49	0	
6	50	0	
7	0	0	
7	1	0	
7	2	0	
7	3	0	
7	4	0	
7	5	0	
7	6	0	
7	7	0	
7	8	0	
7	9	0	
7	10	0	
7	11	0	
7	12	0	
7	13	0	
7	14	0	
7	15	0	
7	16	0	
7	17	0	
7	18	0	
7	19	0	
7	20	0	
7	21	0	
7	22	0	
7	23	0	
7	24	0	
7	25	0	
7	26	0	
7	27	0	
7	28	0	
7	29	0	
7	30	0	
7	31	0	
7	32	0	
7	33	0	
7	34	0	
7	35	0	
7	36	0	
7	37	0	
7	38	0	
7	39	0	
7	40	0	
7	41	0	
7	42	0	
7	43	0	
7	44	0	
7	45	0	
7	46	0	
7	47	0	
7	48	0	
7	49	0	
7	50	0	
8	0	0	
8	1	0	
8	2	0	
8	3	0	
8	4	0	
8	5	0	
8	6	0	
8	7	0	
8	8	0	
8	9	0	
8	10	0	
8	11	0	
8	12	0	
8	13	0	
8	14	0	
8	15	0	
8	16	0	
8	17	0	
8	18	0	
8	19	0	
8	20	0	
8	21	0	
8	22	0	
8	23	0	
8	24	0	
8	25	0	
8	26	0	
8	27	0	
8	28	0	
8	29	0	
8	30	0	
8	31	0	
8	32	0	
8	33	0	
8	34	0	
8	35	0	
8	36	0	
8	37	0	
8	38	0	
8	39	0	
8	40	0	
8	41	0	
8	42	0	
8	43	0	
8	44	0	
8	45	0	
8	46	0	
8	47	0	
8	48	0	
8	49	0	
8	50	0	
9	0	0	
9	1	0	
9	2	0	
9	3	0	
9	4	0	
9	5	0	
9	6	0	
9	7	0	
9	8	0	
9	9	0	
9	10	0	
9	11	0	
9	12	0	
9	13	0	
9	14	0	
9	15	0	
9	16	0	
9	17	0	
9	18	0	
9	19	0	
9	20	0	
9	21	0	
9	22	0	
9	23	0	
9	24	0	
9	25	0	
9	26	0	
9	27	0	
9	28	0	
9	29	0	
9	30	0	
9	31	0	
9	32	0	
9	33	0	
9	34	0	
9	35	0	
9	36	0	
9	37	0	
9	38	0	
9	39	0	
9	40	0	
9	41	0	
9	42	0	
9	43	0	
9	44	0	
9	45	0	
9	46	0	
9	47	0	
9	48	0	
9	49	0	
9	50	0	
10	0	0	
10	1	0	
10	2	0	
10	3	0	
10	4	0	
10	5	0	
10	6	0	
10	7	0	
10	8	0	
10	9	0	
10	10	0	
10	11	0	
10	12	0	
10	13	0	
10	14	0	
10	15	0	
10	16	0	
10	17	0	
10	18	0	
10	19	0	
10	20	0	
10	21	0	
10	22	0	
10	23	0	
10	24	0	
10	25	0	
10	26	0	
10	27	0	
10	28	0	
10	29	0	
10	30	0	
10	31	0	
10	32	0	
10	33	0	
10	34	0	
10	35	0	
10	36	0	
10	37	0	
10	38	0	
10	39	0	
10	40	0	
10	41	0	
10	42	0	
10	43	0	
10	44	0	
10	45	0	
10	46	0	
10	47	0	
10	48	0	
10	49	0	
10	50	0	
11	0	0	
11	1	0	
11	2	0	
11	3	0	
11	4	0	
11	5	0	
11	6	0	
11	7	0	
11	8	0	
11	9	0	
11	10	0	
11	11	0	
11	12	0	
11	13	0	
11	14	0	
11	15	0	
11	16	0	
11	17	0	
11	18	0	
11	19	0	
11	20	0	
11	21	0	
11	22	0	
11	23	0	
11	24	0	
11	25	0	
11	26	0	
11	27	0	
11	28	0	
11	29	0	
11	30	0	
11	31	0	
11	32	0	
11	33	0	
11	34	0	
11	35	0	
11	36	0	
11	37	0	
11	38	0	
11	39	0	
11	40	0	
11	41	0	
11	42	0	
11	43	0	
11	44	0	
11	45	0	
11	46	0	
11	47	0	
11	48	0	
11	49	0	
11	50	0	
12	0	0	
12	1	0	
12	2	0	
12	3	0	
12	4	0	
12	5	0	
12	6	0	
12	7	0	
12	8	0	
12	9	0	
12	10	0	
12	11	0	
12	12	0	
12	13	0	
12	14	0	
12	15	0	
12	16	0	
12	17	0	
12	18	0	
12	19	0	
12	20	0	
12	21	0	
12	22	0	
12	23	0	
12	24	0	
12	25	0	
12	26	0	
12	27	0	
12	28	0	
12	29	0	
12	30	0	
12	31	0	
12	32	0	
12	33	0	
12	34	0	
12	35	0	
12	36	0	
12	37	0	
12	38	0	
12	39	0	
12	40	0	
12	41	0	
12	42	0	
12	43	0	
12	44	0	
12	45	0	
12	46	0	
12	47	0	
12	48	0	
12	49	0	
12	50	0	
13	0	0	
13	1	0	
13	2	0	
13	3	0	
13	4	0	
13	5	0	
13	6	0	
13	7	0	
13	8	0	
13	9	0	
13	10	0	
13	11	0	
13	12	0	
13	13	0	
13	14	0	
13	15	0	
13	16	0	
13	17	0	
13	18	0	
13	19	0	
13	20	0	
13	21	0	
13	22	0	
13	23	0	
13	24	0	
13	25	0	
13	26	0	
13	27	0	
13	28	0	
13	29	0	
13	30	0	
13	31	0	
13	32	0	
13	33	0	
13	34	0	
13	35	0	
13	36	0	
13	37	0	
13	38	0	
13	39	0	
13	40	0	
13	41	0	
13	42	0	
13	43	0	
13	44	0	
13	45	0	
13	46	0	
13	47	0	
13	48	0	
13	49	0	
13	50	0	
14	0	0	
14	1	0	
14	2	0	
14	3	0	
14	4	0	
14	5	0	
14	6	0	
14	7	0	
14	8	0	
14	9	0	
14	10	0	
14	11	0	
14	12	0	
14	13	0	
14	14	0	
14	15	0	
14	16	0	
14	17	0	
14	18	0	
14	19	0	
14	20	0	
14	21	0	
14	22	0	
14	23	0	
14	24	0	
14	25	0	
14	26	0	
14	27	0	
14	28	0	
14	29	0	
14	30	0	
14	31	0	
14	32	0	
14	33	0	
14	34	0	
14	35	0	
14	36	0	
14	37	0	
14	38	0	
14	39	0	
14	40	0	
14	41	0	
14	42	0	
14	43	0	
14	44	0	
14	45	0	
14	46	0	
14	47	0	
14	48	0	
14	49	0	
14	50	0	
15	0	0	
15	1	0	
15	2	0	
15	3	0	
15	4	0	
15	5	0	
15	6	0	
15	7	0	
15	8	0	
15	9	0	
15	10	0	
15	11	0	
15	12	0	
15	13	0	
15	14	0	
15	15	0	
15	16	0	
15	17	0	
15	18	0	
15	19	0	
15	20	0	
15	21	0	
15	22	0	
15	23	0	
15	24	0	
15	25	0	
15	26	0	
15	27	0	
15	28	0	
15	29	0	
15	30	0	
15	31	0	
15	32	0	
15	33	0	
15	34	0	
15	35	0	
15	36	0	
15	37	0	
15	38	0	
15	39	0	
15	40	0	
15	41	0	
15	42	0	
15	43	0	
15	44	0	
15	45	0	
15	46	0	
15	47	0	
15	48	0	
15	49	0	
15	50	0	
16	0	0	
16	1	0	
16	2	0	
16	3	0	
16	4	0	
16	5	0	
16	6	0	
16	7	0	
16	8	0	
16	9	0	
16	10	0	
16	11	0	
16	12	0	
16	13	0	
16	14	0	
16	15	0	
16	16	0	
16	17	0	
16	18	0	
16	19	0	
16	20	0	
16	21	0	
16	22	0	
16	23	0	
16	24	0	
16	25	0	
16	26	0	
16	27	0	
16	28	0	
16	29	0	
16	30	0	
16	31	0	
16	32	0	
16	33	0	
16	34	0	
16	35	0	
16	36	0	
16	37	0	
16	38	0	
16	39	0	
16	40	0	
16	41	0	
16	42	0	
16	43	0	
16	44	0	
16	45	0	
16	46	0	
16	47	0	
16	48	0	
16	49	0	
16	50	0	
17	0	0	
17	1	0	
17	2	0	
17	3	0	
17	4	0	
17	5	0	
17	6	0	
17	7	0	
17	8	0	
17	9	0	
17	10	0	
17	11	0	
17	12	0	
17	13	0	
17	14	0	
17	15	0	
17	16	0	
17	17	0	
17	18	0	
17	19	0	
17	20	0	
17	21	0	
17	22	0	
17	23	0	
17	24	0	
17	25	0	
17	26	0	
17	27	0	
17	28	0	
17	29	0	
17	30	0	
17	31	0	
17	32	0	
17	33	0	
17	34	0	
17	35	0	
17	36	0	
17	37	0	
17	38	0	
17	39	0	
17	40	0	
17	41	0	
17	42	0	
17	43	0	
17	44	0	
17	45	0	
17	46	0	
17	47	0	
17	48	0	
17	49	0	
17	50	0	
18	0	0	
18	1	0	
18	2	0	
18	3	0	
18	4	0	
18	5	0	
18	6	0	
18	7	0	
18	8	0	
18	9	0	
18	10	0	
18	11	0	
18	12	0	
18	13	0	
18	14	0	
18	15	0	
18	16	0	
18	17	0	
18	18	0	
18	19	0	
18	20	0	
18	21	0	
18	22	0	
18	23	0	
18	24	0	
18	25	0	
18	26	0	
18	27	0	
18	28	0	
18	29	0	
18	30	0	
18	31	0	
18	32	0	
18	33	0	
18	34	0	
18	35	0	
18	36	0	
18	37	0	
18	38	0	
18	39	0	
18	40	0	
18	41	0	
18	42	0	
18	43	0	
18	44	0	
18	45	0	
18	46	0	
18	47	0	
18	48	0	
18	49	0	
18	50	0	
19	0	0	
19	1	0	
19	2	0	
19	3	0	
19	4	0	
19	5	0	
19	6	0	
19	7	0	
19	8	0	
19	9	0	
19	10	0	
19	11	0	
19	12	0	
19	13	0	
19	14	0	
19	15	0	
19	16	0	
19	17	0	
19	18	0	
19	19	0	
19	20	0	
19	21	0	
19	22	0	
19	23	0	
19	24	0	
19	25	0	
19	26	0	
19	27	0	
19	28	0	
19	29	0	
19	30	0	
19	31	0	
19	32	0	
19	33	0	
19	34	0	
19	35	0	
19	36	0	
19	37	0	
19	38	0	
19	39	0	
19	40	0	
19	41	0	
19	42	0	
19	43	0	
19	44	0	
19	45	0	
19	46	0	
19	47	0	
19	48	0	
19	49	0	
19	50	0	
20	0	0	
20	1	0	
20	2	0	
20	3	0	
20	4	0	
20	5	0	
20	6	0	
20	7	0	
20	8	0	
20	9	0	
20	10	0	
20	11	0	
20	12	0	
20	13	0	
20	14	0	
20	15	0	
20	16	0	
20	17	0	
20	18	0	
20	19	0	
20	20	0	
20	21	0	
20	22	0	
20	23	0	
20	24	0	
20	25	0	
20	26	0	
20	27	0	
20	28	0	
20	29	0	
20	30	0	
20	31	0	
20	32	0	
20	33	0	
20	34	0	
20	35	0	
20	36	0	
20	37	0	
20	38	0	
20	39	0	
20	40	0	
20	41	0	
20	42	0	
20	43	0	
20	44	0	
20	45	0	
20	46	0	
20	47	0	
20	48	0	
20	49	0	
20	50	0	
21	0	0	
21	1	0	
21	2	0	
21	3	0	
21	4	0	
21	5	0	
21	6	0	
21	7	0	
21	8	0	
21	9	0	
21	10	0	
21	11	0	
21	12	0	
21	13	0	
21	14	0	
21	15	0	
21	16	0	
21	17	0	
21	18	0	
21	19	0	
21	20	0	
21	21	0	
21	22	0	
21	23	0	
21	24	0	
21	25	0	
21	26	0	
21	27	0	
21	28	0	
21	29	0	
21	30	0	
21	31	0	
21	32	0	
21	33	0	
21	34	0	
21	35	0	
21	36	0	
21	37	0	
21	38	0	
21	39	0	
21	40	0	
21	41	0	
21	42	0	
21	43	0	
21	44	0	
21	45	0	
21	46	0	
21	47	0	
21	48	0	
21	49	0	
21	50	0	
22	0	0	
22	1	0	
22	2	0	
22	3	0	
22	4	0	
22	5	0	
22	6	0	
22	7	0	
22	8	0	
22	9	0	
22	10	0	
22	11	0	
22	12	0	
22	13	0	
22	14	0	
22	15	0	
22	16	0	
22	17	0	
22	18	0	
22	19	0	
22	20	0	
22	21	0	
22	22	0	
22	23	0	
22	24	0	
22	25	0	
22	26	0	
22	27	0	
22	28	0	
22	29	0	
22	30	0	
22	31	0	
22	32	0	
22	33	0	
22	34	0	
22	35	0	
22	36	0	
22	37	0	
22	38	0	
22	39	0	
22	40	0	
22	41	0	
22	42	0	
22	43	0	
22	44	0	
22	45	0	
22	46	0	
22	47	0	
22	48	0	
22	49	0	
22	50	0	
23	0	0	
23	1	0	
23	2	0	
23	3	0	
23	4	0	
23	5	0	
23	6	0	
23	7	0	
23	8	0	
23	9	0	
23	10	0	
[...]
POINT_DATA	7701
VECTORS d float
3.4e-016	-0.00158372	0	
3.28491e-016	-0.000372308	0	
2.99655e-016	-0.00157983	0	
2.76687e-016	-0.000380411	0	
2.48168e-016	-0.00157562	0	
2.36623e-016	-0.000388185	0	
1.69551e-016	-0.00157113	0	
2.80851e-016	-0.000392604	0	
-1.23672e-016	-0.00158232	0	
3.43648e-016	-0.000396569	0	
-4.22724e-017	-0.0015933	0	
3.98826e-016	-0.000402792	0	
3.38218e-017	-0.00160418	0	
4.56636e-016	-0.000410841	0	
8.77471e-017	-0.00161513	0	
5.174e-016	-0.000419943	0	
1.13135e-016	-0.00162643	0	
5.84633e-016	-0.000429168	0	
1.23595e-016	-0.00163835	0	
6.53791e-016	-0.000437917	0	
1.68213e-016	-0.00165073	0	
6.95516e-016	-0.000446813	0	
2.26661e-016	-0.00166266	0	
7.70206e-016	-0.000455616	0	
2.51672e-016	-0.0016748	0	
9.21548e-016	-0.000462636	0	
3.47218e-016	-0.00168731	0	
9.66363e-016	-0.000471662	0	
5.25106e-016	-0.00169407	0	
3.32528e-016	-0.000475083	0	
1.95984e-016	-0.00169896	0	
2.46286e-016	-0.000481641	0	
-3.67763e-017	-0.00169778	0	
2.57055e-016	-0.000482896	0	
2.11913e-016	-0.00170181	0	
2.016e-016	-0.000485361	0	
1.84308e-016	-0.00169997	0	
1.6811e-016	-0.000489852	0	
1.27814e-016	-0.00169761	0	
-2.44235e-016	-0.00050096	0	
3.02095e-017	-0.00169537	0	
-2.55765e-016	-0.000516276	0	
-4.20152e-017	-0.00169519	0	
-4.41467e-016	-0.000529522	0	
-2.65691e-016	-0.00169847	0	
-1.82757e-016	-0.000537253	0	
-1.97326e-016	-0.00169658	0	
-4.09703e-016	-0.000537418	0	
-3.80471e-016	-0.00169558	0	
-5.15533e-016	-0.000538707	0	
-1.22888e-015	-0.00171008	0	
5.84998e-006	-0.000368006	0	
-4.89719e-007	-0.0015817	0	
5.4429e-006	-0.000376305	0	
-9.05006e-007	-0.00157767	0	
5.02957e-006	-0.000384228	0	
-1.30771e-006	-0.00157326	0	
4.06131e-006	-0.000391689	0	
-1.19848e-006	-0.00157669	0	
5.44647e-006	-0.000394252	0	
-8.00023e-007	-0.00158779	0	
6.3875e-006	-0.000399386	0	
-3.68594e-007	-0.00159873	0	
7.25772e-006	-0.000406663	0	
-5.90586e-008	-0.00160964	0	
8.02071e-006	-0.000415422	0	
7.0138e-008	-0.00162073	0	
8.69822e-006	-0.000424781	0	
2.79122e-009	-0.00163234	0	
9.36422e-006	-0.000433865	0	
-1.20018e-007	-0.00164466	0	
9.97781e-006	-0.000442442	0	
3.05475e-007	-0.00165712	0	
1.00647e-005	-0.000451707	0	
5.58352e-007	-0.00166889	0	
1.07031e-005	-0.000460052	0	
4.75627e-007	-0.0016817	0	
1.23713e-005	-0.000466863	0	
-5.26688e-007	-0.00169204	0	
1.53963e-005	-0.000479644	0	
-6.95016e-007	-0.00170032	0	
5.69511e-006	-0.000478926	0	
-2.78273e-006	-0.00169706	0	
3.81623e-006	-0.000481851	0	
-9.34256e-007	-0.00169907	0	
3.39616e-006	-0.000482906	0	
4.07173e-008	-0.00170089	0	
2.99216e-006	-0.000487592	0	
-3.2813e-007	-0.00169883	0	
2.28099e-006	-0.000492556	0	
-3.96e-007	-0.00169609	0	
2.04125e-006	-0.000508785	0	
-2.03274e-007	-0.00169495	0	
7.69963e-007	-0.000522687	0	
2.62719e-007	-0.00169546	0	
-4.36447e-006	-0.000531981	0	
-4.02917e-007	-0.0016963	0	
-2.43788e-006	-0.000535694	0	
-1.99447e-006	-0.00169417	0	
-3.13472e-006	-0.000536625	0	
-9.94122e-007	-0.00169596	0	
-7.8437e-006	-0.000530535	0	
-5.53978e-007	-0.00158328	0	
1.12904e-005	-0.000371909	0	
-1.3918e-006	-0.00157942	0	
1.04684e-005	-0.000379995	0	
-2.21252e-006	-0.00157522	0	
9.63203e-006	-0.000387748	0	
-3.17264e-006	-0.00157088	0	
9.93751e-006	-0.000392482	0	
-2.07472e-006	-0.00158211	0	
1.18929e-005	-0.000396374	0	
-1.1394e-006	-0.00159319	0	
1.37344e-005	-0.000402796	0	
-3.82179e-007	-0.00160416	0	
1.53921e-005	-0.000411108	0	
6.48821e-008	-0.00161518	0	
1.68021e-005	-0.000420516	0	
1.40737e-007	-0.00162651	0	
1.81015e-005	-0.00043007	0	
-7.85524e-008	-0.0016386	0	
1.9399e-005	-0.000438973	0	
-1.24572e-007	-0.00165159	0	
2.05388e-005	-0.00044729	0	
1.16516e-006	-0.00166418	0	
2.04269e-005	-0.000457962	0	
1.26674e-006	-0.00167599	0	
2.22731e-005	-0.000465244	0	
2.6671e-006	-0.00169055	0	
2.36114e-005	-0.000473225	0	
-4.57479e-006	-0.0016898	0	
1.52651e-005	-0.000473322	0	
-5.52695e-006	-0.00169507	0	
9.01111e-006	-0.000478487	0	
-3.38154e-006	-0.00169689	0	
6.90711e-006	-0.000481589	0	
3.62023e-007	-0.00170159	0	
6.42466e-006	-0.000484967	0	
-3.18562e-007	-0.00169962	0	
5.67322e-006	-0.000489635	0	
-1.38843e-006	-0.00169704	0	
4.97603e-006	-0.000500821	0	
-6.94214e-007	-0.00169521	0	
2.89912e-006	-0.000515424	0	
-6.1996e-007	-0.0016943	0	
-6.74398e-008	-0.000526865	0	
-4.41813e-006	-0.00169367	0	
-2.24899e-006	-0.00053125	0	
-4.2278e-006	-0.00169181	0	
-4.39805e-006	-0.000533336	0	
-5.3048e-006	-0.00169035	0	
-7.88753e-006	-0.000530448	0	
-1.25888e-005	-0.00168598	0	
1.7532e-005	-0.000367226	0	
-1.45044e-006	-0.00158085	0	
1.63104e-005	-0.000375489	0	
-2.69525e-006	-0.00157686	0	
1.50656e-005	-0.000383375	0	
-3.91635e-006	-0.00157248	0	
1.379e-005	-0.000390858	0	
-3.93948e-006	-0.00157615	0	
1.64845e-005	-0.0003937	0	
-2.36955e-006	-0.00158744	0	
1.93939e-005	-0.000399179	0	
-1.06638e-006	-0.0015986	0	
2.20718e-005	-0.000406941	0	
-1.77369e-007	-0.00160966	0	
2.44188e-005	-0.00041623	0	
2.25756e-007	-0.00162089	0	
2.63181e-005	-0.000426222	0	
1.64949e-007	-0.00163255	0	
2.8203e-005	-0.000435837	0	
-7.60279e-008	-0.00164552	0	
3.00508e-005	-0.000444428	0	
2.16405e-007	-0.00165965	0	
3.21488e-005	-0.000452821	0	
2.00234e-006	-0.00167109	0	
3.15257e-005	-0.000466358	0	
4.39562e-006	-0.00168722	0	
3.12925e-005	-0.000469291	0	
-3.84683e-006	-0.00168565	0	
2.19058e-005	-0.000470053	0	
-5.87712e-006	-0.00168994	0	
1.59296e-005	-0.000472679	0	
-5.82346e-006	-0.00169391	0	
1.16291e-005	-0.000478054	0	
-2.11138e-006	-0.00169836	0	
1.03745e-005	-0.000481915	0	
4.28329e-008	-0.00170034	0	
9.10524e-006	-0.000486984	0	
-1.24184e-006	-0.0016979	0	
7.99336e-006	-0.000493372	0	
-1.83754e-006	-0.00169536	0	
6.21414e-006	-0.000506822	0	
-7.49595e-007	-0.00169424	0	
2.78956e-006	-0.000521836	0	
-3.38454e-006	-0.00169332	0	
-9.03948e-007	-0.000526324	0	
-6.78801e-006	-0.00168976	0	
-3.53016e-006	-0.000529037	0	
-8.88407e-006	-0.00168688	0	
-7.602e-006	-0.000528872	0	
-1.43738e-005	-0.00168272	0	
-1.2844e-005	-0.000528061	0	
-1.07044e-006	-0.00158197	0	
2.25443e-005	-0.000370711	0	
-2.74642e-006	-0.00157816	0	
2.08994e-005	-0.000378742	0	
-4.39104e-006	-0.00157402	0	
1.92232e-005	-0.000386441	0	
-5.98355e-006	-0.0015697	0	
2.01957e-005	-0.000391201	0	
-4.10545e-006	-0.0015814	0	
2.41297e-005	-0.00039574	0	
-2.13639e-006	-0.0015928	0	
2.80503e-005	-0.000402893	0	
-7.52021e-007	-0.00160414	0	
3.14e-005	-0.000411942	0	
6.73173e-008	-0.00161523	0	
3.44053e-005	-0.000422088	0	
2.97953e-007	-0.00162689	0	
3.64213e-005	-0.000432562	0	
2.71178e-007	-0.00163894	0	
3.89918e-005	-0.000441858	0	
4.7774e-007	-0.00165373	0	
4.11012e-005	-0.000450291	0	
1.70953e-006	-0.00166945	0	
4.63325e-005	-0.000461914	0	
-5.78967e-006	-0.00167022	0	
3.98651e-005	-0.00046099	0	
-3.89748e-006	-0.00167905	0	
2.94431e-005	-0.000464591	0	
-6.37743e-006	-0.00168401	0	
2.23472e-005	-0.000467786	0	
-6.73269e-006	-0.0016894	0	
1.75147e-005	-0.00047259	0	
-4.58306e-006	-0.00169468	0	
1.45687e-005	-0.000478305	0	
6.44373e-007	-0.00170101	0	
1.31776e-005	-0.000483762	0	
-1.00098e-006	-0.00169841	0	
1.15121e-005	-0.000488838	0	
-5.20985e-007	-0.00169284	0	
8.31595e-006	-0.000499798	0	
-8.13906e-007	-0.00169626	0	
7.15235e-006	-0.000513839	0	
-5.57478e-006	-0.00168886	0	
3.0804e-006	-0.000519279	0	
-8.2428e-006	-0.00168715	0	
-1.43599e-006	-0.000524051	0	
-1.1597e-005	-0.00168439	0	
-6.18076e-006	-0.000525573	0	
-1.67682e-005	-0.00167979	0	
-1.15939e-005	-0.000525681	0	
-2.51088e-005	-0.00167325	0	
2.91597e-005	-0.000365665	0	
-2.35593e-006	-0.00157914	0	
2.71228e-005	-0.000373854	0	
-4.43185e-006	-0.00157522	0	
2.50466e-005	-0.000381667	0	
-6.46862e-006	-0.00157092	0	
2.30044e-005	-0.000389083	0	
-6.27528e-006	-0.00157492	0	
2.78763e-005	-0.000392351	0	
-3.60759e-006	-0.0015867	0	
3.30869e-005	-0.000398938	0	
-1.60053e-006	-0.00159828	0	
3.79307e-005	-0.000407655	0	
-4.71614e-007	-0.00160988	0	
4.1672e-005	-0.000417904	0	
1.6998e-007	-0.00162074	0	
4.55385e-005	-0.000428543	0	
1.02078e-007	-0.0016335	0	
4.67067e-005	-0.000439497	0	
1.13005e-006	-0.00164589	0	
5.01614e-005	-0.000447174	0	
2.69162e-006	-0.00166395	0	
5.21136e-005	-0.000457136	0	
-3.70621e-006	-0.00166449	0	
4.32076e-005	-0.000457227	0	
-4.55789e-006	-0.00167127	0	
3.73779e-005	-0.000457556	0	
-6.57104e-006	-0.0016771	0	
2.93235e-005	-0.000461862	0	
-7.43162e-006	-0.00168348	0	
2.37189e-005	-0.00046677	0	
-6.21097e-006	-0.00168988	0	
1.99674e-005	-0.000472843	0	
-2.34997e-006	-0.00169666	0	
1.84451e-005	-0.000479513	0	
-4.64319e-007	-0.00169905	0	
1.54524e-005	-0.000485645	0	
-2.58738e-006	-0.00169591	0	
1.29843e-005	-0.00049267	0	
-4.02853e-006	-0.00169153	0	
9.35283e-006	-0.000501293	0	
-5.90216e-006	-0.00168674	0	
6.78138e-006	-0.00051242	0	
-9.00151e-006	-0.00168408	0	
2.77914e-006	-0.000517995	0	
-1.31814e-005	-0.00168211	0	
-3.76397e-006	-0.000521034	0	
-1.89877e-005	-0.00167725	0	
-9.56875e-006	-0.000522321	0	
-2.66113e-005	-0.00167108	0	
-1.62407e-005	-0.00052351	0	
-1.51333e-006	-0.00157979	0	
3.37252e-005	-0.000368713	0	
-4.02833e-006	-0.00157608	0	
3.12569e-005	-0.000376653	0	
-6.49633e-006	-0.00157203	0	
2.87416e-005	-0.00038426	0	
-8.85709e-006	-0.0015678	0	
3.06368e-005	-0.00038913	0	
-5.64501e-006	-0.00158031	0	
3.70237e-005	-0.000394795	0	
-2.56232e-006	-0.00159206	0	
4.35032e-005	-0.00040361	0	
-1.19032e-006	-0.00160403	0	
4.90235e-005	-0.000413382	0	
-5.65477e-007	-0.00161576	0	
5.29685e-005	-0.000425135	0	
-3.41933e-008	-0.00162611	0	
5.77753e-005	-0.000434549	0	
-9.75252e-007	-0.00164054	0	
5.79788e-005	-0.000447789	0	
5.71124e-006	-0.00165728	0	
5.47396e-005	-0.00044706	0	
-2.05126e-006	-0.00165602	0	
4.85143e-005	-0.000450616	0	
-4.95465e-006	-0.00166269	0	
4.23638e-005	-0.000452422	0	
-6.32338e-006	-0.00166983	0	
3.64169e-005	-0.000455247	0	
-7.77133e-006	-0.00167655	0	
3.03105e-005	-0.000460352	0	
-7.36773e-006	-0.00168383	0	
2.59396e-005	-0.000466465	0	
-4.69546e-006	-0.00169129	0	
2.34487e-005	-0.00047363	0	
5.57849e-007	-0.0016992	0	
2.11319e-005	-0.000480947	0	
-2.77945e-006	-0.00169613	0	
1.76064e-005	-0.000487531	0	
-5.81889e-006	-0.00169226	0	
1.47542e-005	-0.000495295	0	
-8.31691e-006	-0.00168729	0	
1.18826e-005	-0.000503814	0	
-1.02524e-005	-0.00168148	0	
7.72727e-006	-0.000512242	0	
-1.30916e-005	-0.00168023	0	
-1.24658e-007	-0.000515413	0	
-2.06464e-005	-0.0016748	0	
-6.6988e-006	-0.000517895	0	
-2.82173e-005	-0.00166881	0	
-1.35882e-005	-0.000519614	0	
-3.75717e-005	-0.00166132	0	
4.06963e-005	-0.000363322	0	
-3.1701e-006	-0.00157658	0	
3.78437e-005	-0.000371401	0	
-6.07711e-006	-0.00157277	0	
3.49362e-005	-0.000379104	0	
-8.92934e-006	-0.00156858	0	
3.2103e-005	-0.000386414	0	
-8.34234e-006	-0.00157321	0	
4.0112e-005	-0.000390441	0	
-4.1532e-006	-0.00158601	0	
4.76914e-005	-0.000399137	0	
-1.30459e-006	-0.00159734	0	
5.54569e-005	-0.000409819	0	
-1.52765e-006	-0.00161039	0	
6.11377e-005	-0.000419757	0	
-1.66121e-006	-0.00162067	0	
6.70497e-005	-0.000434952	0	
-1.08551e-007	-0.00163466	0	
6.44396e-005	-0.000434792	0	
-7.44874e-006	-0.00163326	0	
6.18709e-005	-0.000435608	0	
-2.65307e-006	-0.00164706	0	
5.43004e-005	-0.000442524	0	
-4.66324e-006	-0.00165337	0	
4.78197e-005	-0.00044598	0	
-6.41511e-006	-0.0016613	0	
4.22937e-005	-0.000449158	0	
-7.71283e-006	-0.00166898	0	
3.69481e-005	-0.000453581	0	
-8.0926e-006	-0.00167675	0	
3.22528e-005	-0.000459522	0	
-6.47631e-006	-0.00168486	0	
2.90877e-005	-0.000466631	0	
-2.56824e-006	-0.00169309	0	
2.81074e-005	-0.000475002	0	
-2.07179e-006	-0.00169564	0	
2.32901e-005	-0.000481885	0	
-6.48641e-006	-0.00169161	0	
1.96436e-005	-0.000488733	0	
-9.90239e-006	-0.00168723	0	
1.62627e-005	-0.000496346	0	
-1.2894e-005	-0.00168139	0	
1.37459e-005	-0.000504509	0	
-1.8e-005	-0.00167648	0	
4.80322e-006	-0.000508946	0	
-2.16441e-005	-0.00167241	0	
-2.84719e-006	-0.000512492	0	
-2.96156e-005	-0.00166646	0	
-1.02462e-005	-0.000514964	0	
-3.86866e-005	-0.00165938	0	
-1.81905e-005	-0.000517326	0	
-1.84678e-006	-0.00157674	0	
4.47965e-005	-0.000365915	0	
-5.20055e-006	-0.00157315	0	
4.15048e-005	-0.000373727	0	
-8.49182e-006	-0.00156923	0	
3.81501e-005	-0.000381206	0	
-1.16057e-005	-0.00156515	0	
4.16473e-005	-0.00038639	0	
-6.52134e-006	-0.00157913	0	
5.17197e-005	-0.000393754	0	
-2.29517e-006	-0.00159201	0	
5.98013e-005	-0.000406083	0	
-1.74118e-007	-0.0016025	0	
6.82031e-005	-0.00041646	0	
-2.97534e-006	-0.00161767	0	
7.46806e-005	-0.000428102	0	
-7.99315e-006	-0.00161759	0	
6.87968e-005	-0.000425849	0	
-5.77472e-006	-0.00162703	0	
6.32081e-005	-0.000431608	0	
-3.68431e-006	-0.00163686	0	
6.07245e-005	-0.000433237	0	
-4.88076e-006	-0.00164428	0	
5.38039e-005	-0.000438637	0	
-6.33768e-006	-0.00165211	0	
4.80324e-005	-0.000442599	0	
-7.68799e-006	-0.00166046	0	
4.30614e-005	-0.000446917	0	
-8.41672e-006	-0.00166883	0	
3.86128e-005	-0.000452353	0	
-7.75158e-006	-0.00167747	0	
3.50855e-005	-0.000459052	0	
-5.058e-006	-0.00168615	0	
3.31756e-005	-0.000467137	0	
-1.93314e-007	-0.00169452	0	
3.00166e-005	-0.000475406	0	
-6.00939e-006	-0.00169071	0	
2.48242e-005	-0.00048228	0	
-1.07344e-005	-0.00168647	0	
2.07189e-005	-0.000489159	0	
-1.48829e-005	-0.00168108	0	
1.75953e-005	-0.000496694	0	
-1.7875e-005	-0.00167471	0	
8.58985e-006	-0.000502223	0	
-2.26409e-005	-0.00167058	0	
1.98934e-006	-0.000506333	0	
-3.06611e-005	-0.00166411	0	
-6.11156e-006	-0.000509517	0	
-3.97418e-005	-0.00165724	0	
-1.43822e-005	-0.000512289	0	
-5.00404e-005	-0.0016492	0	
5.21047e-005	-0.000360197	0	
-3.8566e-006	-0.00157317	0	
4.84371e-005	-0.00036813	0	
-7.594e-006	-0.0015695	0	
4.46975e-005	-0.000375687	0	
-1.12623e-005	-0.00156546	0	
4.11537e-005	-0.000382847	0	
-9.57333e-006	-0.00157124	0	
5.40212e-005	-0.000388736	0	
-3.84513e-006	-0.00158587	0	
6.53447e-005	-0.000399584	0	
-1.48414e-006	-0.00159734	0	
7.47391e-005	-0.000416873	0	
1.79696e-006	-0.00161148	0	
7.17511e-005	-0.00041644	0	
-4.20715e-006	-0.00161021	0	
6.98671e-005	-0.000421745	0	
-5.32443e-006	-0.00161896	0	
6.74754e-005	-0.00042387	0	
-4.76338e-006	-0.00162708	0	
6.36651e-005	-0.000427561	0	
-4.62359e-006	-0.00163555	0	
5.96191e-005	-0.000430851	0	
-6.26898e-006	-0.001643	0	
5.386e-005	-0.00043557	0	
-7.59482e-006	-0.00165136	0	
4.88868e-005	-0.000440094	0	
-8.52545e-006	-0.00166012	0	
4.46669e-005	-0.00044524	0	
-8.54597e-006	-0.00166919	0	
4.11928e-005	-0.000451338	0	
-6.96592e-006	-0.00167846	0	
3.86774e-005	-0.000458744	0	
-3.45299e-006	-0.00168708	0	
3.80739e-005	-0.000467815	0	
-4.52639e-006	-0.00168892	0	
3.12159e-005	-0.000475039	0	
-1.0576e-005	-0.00168491	0	
2.56244e-005	-0.00048201	0	
-1.60832e-005	-0.00168016	0	
2.13126e-005	-0.000488843	0	
-1.97644e-005	-0.00167442	0	
1.41331e-005	-0.000495652	0	
-2.23331e-005	-0.0016688	0	
6.90186e-006	-0.000499906	0	
-3.14469e-005	-0.00166192	0	
-1.19491e-006	-0.000503334	0	
-4.05762e-005	-0.00165498	0	
-9.93182e-006	-0.000506635	0	
-5.0792e-005	-0.00164727	0	
-1.90454e-005	-0.000509812	0	
-2.03496e-006	-0.00157281	0	
5.57218e-005	-0.000362317	0	
-6.22609e-006	-0.00156939	0	
5.16067e-005	-0.000369964	0	
-1.03409e-005	-0.00156563	0	
4.74115e-005	-0.000377279	0	
-1.39846e-005	-0.00156183	0	
5.46937e-005	-0.000383887	0	
-5.57026e-006	-0.00157925	0	
6.82097e-005	-0.000394241	0	
-1.26368e-006	-0.00159277	0	
8.07437e-005	-0.000408489	0	
-7.18459e-006	-0.00159449	0	
7.6823e-005	-0.000407757	0	
-4.30536e-006	-0.00160383	0	
7.26367e-005	-0.000414553	0	
-4.46307e-006	-0.00160953	0	
6.97078e-005	-0.000417891	0	
-4.80821e-006	-0.00161818	0	
6.72304e-005	-0.00042093	0	
-5.00379e-006	-0.00162621	0	
6.37409e-005	-0.000424396	0	
-5.96727e-006	-0.00163412	0	
5.93721e-005	-0.000428382	0	
-7.44818e-006	-0.00164214	0	
5.45478e-005	-0.000433069	0	
-8.50003e-006	-0.00165089	0	
5.03759e-005	-0.000438098	0	
-8.89607e-006	-0.00166011	0	
4.70382e-005	-0.000443808	0	
-8.27545e-006	-0.00166985	0	
4.45058e-005	-0.000450325	0	
-6.01616e-006	-0.00167935	0	
4.27112e-005	-0.000458482	0	
-2.14961e-006	-0.0016867	0	
3.84809e-005	-0.000466731	0	
-9.24337e-006	-0.00168224	0	
3.19319e-005	-0.000474006	0	
-1.61248e-005	-0.00167818	0	
2.50884e-005	-0.000480607	0	
-2.11282e-005	-0.00167317	0	
2.08061e-005	-0.000486305	0	
-2.66176e-005	-0.00166413	0	
1.40222e-005	-0.000491876	0	
-3.20343e-005	-0.00165925	0	
4.25042e-006	-0.000496463	0	
-4.1113e-005	-0.00165265	0	
-4.79956e-006	-0.00050034	0	
-5.13868e-005	-0.00164513	0	
-1.42851e-005	-0.000503859	0	
-6.2584e-005	-0.00163666	0	
6.33463e-005	-0.000356294	0	
-4.37791e-006	-0.0015689	0	
5.88658e-005	-0.00036404	0	
-8.94656e-006	-0.00156541	0	
5.42949e-005	-0.000371414	0	
-1.34327e-005	-0.00156155	0	
5.06061e-005	-0.000378169	0	
-5.90041e-006	-0.00156898	0	
7.13158e-005	-0.000389199	0	
-2.4293e-006	-0.00158943	0	
8.34947e-005	-0.00040357	0	
-4.5779e-006	-0.00158856	0	
7.71881e-005	-0.00040351	0	
-4.41589e-006	-0.0015956	0	
7.62496e-005	-0.000406008	0	
-4.78001e-006	-0.00160142	0	
7.28534e-005	-0.000411228	0	
-4.74634e-006	-0.00160876	0	
7.02136e-005	-0.000414596	0	
-5.17997e-006	-0.00161697	0	
6.75191e-005	-0.000417936	0	
-5.97858e-006	-0.00162492	0	
6.40001e-005	-0.000421676	0	
-7.23015e-006	-0.00163296	0	
5.98865e-005	-0.000426006	0	
-8.42194e-006	-0.00164147	0	
5.58319e-005	-0.000430887	0	
-9.02556e-006	-0.0016506	0	
5.24443e-005	-0.000436311	0	
-8.8094e-006	-0.00166028	0	
5.00449e-005	-0.000442394	0	
-7.7976e-006	-0.00167071	0	
4.83185e-005	-0.000449235	0	
-5.47523e-006	-0.00167956	0	
4.65254e-005	-0.000458132	0	
-8.01306e-006	-0.0016795	0	
3.92338e-005	-0.000465099	0	
-1.42378e-005	-0.00167488	0	
3.07849e-005	-0.000471583	0	
-2.23933e-005	-0.00166995	0	
2.559e-005	-0.000477147	0	
-2.46464e-005	-0.00166186	0	
1.72949e-005	-0.000481818	0	
-3.18305e-005	-0.00165601	0	
1.0689e-005	-0.000488404	0	
-4.1258e-005	-0.00165005	0	
9.82995e-007	-0.000493396	0	
-5.17018e-005	-0.00164283	0	
-8.92249e-006	-0.000497379	0	
-6.2997e-005	-0.00163464	0	
-1.91183e-005	-0.000501139	0	
-2.03582e-006	-0.00156802	0	
6.64607e-005	-0.000357925	0	
-7.07092e-006	-0.00156479	0	
6.15262e-005	-0.000365361	0	
-1.20095e-005	-0.00156123	0	
5.64927e-005	-0.000372477	0	
-1.4464e-005	-0.00155873	0	
7.8451e-005	-0.000383657	0	
-1.44596e-007	-0.00157958	0	
7.52017e-005	-0.000386158	0	
-1.44366e-006	-0.00157941	0	
7.86454e-005	-0.000396142	0	
-4.01816e-006	-0.00158659	0	
7.74306e-005	-0.000399785	0	
-4.47584e-006	-0.00159341	0	
7.60806e-005	-0.000403758	0	
-5.01416e-006	-0.00159989	0	
7.34555e-005	-0.000408036	0	
-5.35443e-006	-0.00160756	0	
7.09743e-005	-0.000411527	0	
-6.09446e-006	-0.00161556	0	
6.81362e-005	-0.000415123	0	
-7.17101e-006	-0.0016236	0	
6.46973e-005	-0.000419153	0	
-8.34116e-006	-0.00163198	0	
6.10105e-005	-0.000423712	0	
-9.13149e-006	-0.00164089	0	
5.7621e-005	-0.000428783	0	
-9.11848e-006	-0.00165037	0	
5.49292e-005	-0.000434471	0	
-8.13732e-006	-0.00166052	0	
5.34126e-005	-0.000440848	0	
-7.24657e-006	-0.00167186	0	
5.254e-005	-0.000448836	0	
-7.66261e-006	-0.0016779	0	
4.65525e-005	-0.000456585	0	
-1.29858e-005	-0.00167217	0	
3.93187e-005	-0.00046273	0	
-2.08493e-005	-0.00166644	0	
3.15309e-005	-0.000467621	0	
-2.55705e-005	-0.00165937	0	
2.45984e-005	-0.000473394	0	
-3.22691e-005	-0.00165376	0	
1.69635e-005	-0.000480333	0	
-4.06351e-005	-0.00164738	0	
7.54549e-006	-0.000485775	0	
-5.16321e-005	-0.00164034	0	
-2.92079e-006	-0.000490339	0	
-6.3156e-005	-0.0016324	0	
-1.35573e-005	-0.0004944	0	
-7.52767e-005	-0.00162358	0	
7.4387e-005	-0.000351614	0	
-4.68874e-006	-0.00156378	0	
6.9079e-005	-0.000359143	0	
-1.01114e-005	-0.0015605	0	
6.37038e-005	-0.000366272	0	
-1.54077e-005	-0.00155684	0	
6.62606e-005	-0.000370974	0	
-1.63606e-006	-0.00157315	0	
7.81107e-005	-0.000379829	0	
-4.03004e-006	-0.00157423	0	
7.99453e-005	-0.000387573	0	
-2.96977e-006	-0.00157724	0	
7.91996e-005	-0.000392785	0	
-4.30999e-006	-0.00158454	0	
7.82987e-005	-0.000397003	0	
-5.02689e-006	-0.00159131	0	
7.66669e-005	-0.000401133	0	
-5.65379e-006	-0.00159834	0	
7.4409e-005	-0.000405015	0	
-6.31986e-006	-0.00160607	0	
7.19596e-005	-0.000408621	0	
-7.26964e-006	-0.00161409	0	
6.90917e-005	-0.000412442	0	
-8.36177e-006	-0.00162237	0	
6.58516e-005	-0.000416686	0	
-9.26724e-006	-0.00163109	0	
6.26076e-005	-0.000421377	0	
-9.53635e-006	-0.00164032	0	
5.97756e-005	-0.000426493	0	
-8.66298e-006	-0.00165014	0	
5.75021e-005	-0.000432233	0	