# vtk DataFile Version 4.1
vtk output
ASCII
DATASET UNSTRUCTURED_GRID

POINTS	7701	float
0	0	0	
0	1	0	
0	2	0	
0	3	0	
0	4	0	
0	5	0	
0	6	0	
0	7	0	
0	8	0	
0	9	0	
0	10	0	
0	11	0	
0	12	0	
0	13	0	
0	14	0	
0	15	0	
0	16	0	
0	17	0	
0	18	0	
0	19	0	
0	20	0	
0	21	0	
0	22	0	
0	23	0	
0	24	0	
0	25	0	
0	26	0	
0	27	0	
0	28	0	
0	29	0	
0	30	0	
0	31	0	
0	32	0	
0	33	0	
0	34	0	
0	35	0	
0	36	0	
0	37	0	
0	38	0	
0	39	0	
0	40	0	
0	41	0	
0	42	0	
0	43	0	
0	44	0	
0	45	0	
0	46	0	
0	47	0	
0	48	0	
0	49	0	
0	50	0	
1	0	0	
1	1	0	
1	2	0	
1	3	0	
1	4	0	
1	5	0	
1	6	0	
1	7	0	
1	8	0	
1	9	0	
1	10	0	
1	11	0	
1	12	0	
1	13	0	
1	14	0	
1	15	0	
1	16	0	
1	17	0	
1	18	0	
1	19	0	
1	20	0	
1	21	0	
1	22	0	
1	23	0	
1	24	0	
1	25	0	
1	26	0	
1	27	0	
1	28	0	
1	29	0	
1	30	0	
1	31	0	
1	32	0	
1	33	0	
1	34	0	
1	35	0	
1	36	0	
1	37	0	
1	38	0	
1	39	0	
1	40	0	
1	41	0	
1	42	0	
1	43	0	
1	44	0	
1	45	0	
1	46	0	
1	47	0	
1	48	0	
1	49	0	
1	50	0	
2	0	0	
2	1	0	
2	2	0	
2	3	0	
2	4	0	
2	5	0	
2	6	0	
2	7	0	
2	8	0	
2	9	0	
2	10	0	
2	11	0	
2	12	0	
2	13	0	
2	14	0	
2	15	0	
2	16	0	
2	17	0	
2	18	0	
2	19	0	
2	20	0	
2	21	0	
2	22	0	
2	23	0	
2	24	0	
2	25	0	
2	26	0	
2	27	0	
2	28	0	
2	29	0	
2	30	0	
2	31	0	
2	32	0	
2	33	0	
2	34	0	
2	35	0	
2	36	0	
2	37	0	
2	38	0	
2	39	0	
2	40	0	
2	41	0	
2	42	0	
2	43	0	
2	44	0	
2	45	0	
2	46	0	
2	47	0	
2	48	0	
2	49	0	
2	50	0	
3	0	0	
3	1	0	
3	2	0	
3	3	0	
3	4	0	
3	5	0	
3	6	0	
3	7	0	
3	8	0	
3	9	0	
3	10	0	
3	11	0	
3	12	0	
3	13	0	
3	14	0	
3	15	0	
3	16	0	
3	17	0	
3	18	0	
3	19	0	
3	20	0	
3	21	0	
3	22	0	
3	23	0	
3	24	0	
3	25	0	
3	26	0	
3	27	0	
3	28	0	
3	29	0	
3	30	0	
3	31	0	
3	32	0	
3	33	0	
3	34	0	
3	35	0	
3	36	0	
3	37	0	
3	38	0	
3	39	0	
3	40	0	
3	41	0	
3	42	0	
3	43	0	
3	44	0	
3	45	0	
3	46	0	
3	47	0	
3	48	0	
3	49	0	
3	50	0	
4	0	0	
4	1	0	
4	2	0	
4	3	0	
4	4	0	
4	5	0	
4	6	0	
4	7	0	
4	8	0	
4	9	0	
4	10	0	
4	11	0	
4	12	0	
4	13	0	
4	14	0	
4	15	0	
4	16	0	
4	17	0	
4	18	0	
4	19	0	
4	20	0	
4	21	0	
4	22	0	
4	23	0	
4	24	0	
4	25	0	
4	26	0	
4	27	0	
4	28	0	
4	29	0	
4	30	0	
4	31	0	
4	32	0	
4	33	0	
4	34	0	
4	35	0	
4	36	0	
4	37	0	
4	38	0	
4	39	0	
4	40	0	
4	41	0	
4	42	0	
4	43	0	
4	44	0	
4	45	0	
4	46	0	
4	47	0	
4	48	0	
4	49	0	
4	50	0	
5	0	0	
5	1	0	
5	2	0	
5	3	0	
5	4	0	
5	5	0	
5	6	0	
5	7	0	
5	8	0	
5	9	0	
5	10	0	
5	11	0	
5	12	0	
5	13	0	
5	14	0	
5	15	0	
5	16	0	
5	17	0	
5	18	0	
5	19	0	
5	20	0	
5	21	0	
5	22	0	
5	23	0	
5	24	0	
5	25	0	
5	26	0	
5	27	0	
5	28	0	
5	29	0	
5	30	0	
5	31	0	
5	32	0	
5	33	0	
5	34	0	
5	35	0	
5	36	0	
5	37	0	
5	38	0	
5	39	0	
5	40	0	
5	41	0	
5	42	0	
5	43	0	
5	44	0	
5	45	0	
5	46	0	
5	47	0	
5	48	0	
5	49	0	
5	50	0	
6	0	0	
6	1	0	
6	2	0	
6	3	0	
6	4	0	
6	5	0	
6	6	0	
6	7	0	
6	8	0	
6	9	0	
6	10	0	
6	11	0	
6	12	0	
6	13	0	
6	14	0	
6	15	0	
6	16	0	
6	17	0	
6	18	0	
6	19	0	
6	20	0	
6	21	0	
6	22	0	
6	23	0	
6	24	0	
6	25	0	
6	26	0	
6	27	0	
6	28	0	
6	29	0	
6	30	0	
6	31	0	
6	32	0	
6	33	0	
6	34	0	
6	35	0	
6	36	0	
6	37	0	
6	38	0	
6	39	0	
6	40	0	
6	41	0	
6	42	0	
6	43	0	
6	44	0	
6	45	0	
6	46	0	
6	47	0	
6	48	0	
6	49	0	
6	50	0	
7	0	0	
7	1	0	
7	2	0	
7	3	0	
7	4	0	
7	5	0	
7	6	0	
7	7	0	
7	8	0	
7	9	0	
7	10	0	
7	11	0	
7	12	0	
7	13	0	
7	14	0	
7	15	0	
7	16	0	
7	17	0	
7	18	0	
7	19	0	
7	20	0	
7	21	0	
7	22	0	
7	23	0	
7	24	0	
7	25	0	
7	26	0	
7	27	0	
7	28	0	
7	29	0	
7	30	0	
7	31	0	
7	32	0	
7	33	0	
7	34	0	
7	35	0	
7	36	0	
7	37	0	
7	38	0	
7	39	0	
7	40	0	
7	41	0	
7	42	0	
7	43	0	
7	44	0	
7	45	0	
7	46	0	
7	47	0	
7	48	0	
7	49	0	
7	50	0	
8	0	0	
8	1	0	
8	2	0	
8	3	0	
8	4	0	
8	5	0	
8	6	0	
8	7	0	
8	8	0	
8	9	0	
8	10	0	
8	11	0	
8	12	0	
8	13	0	
8	14	0	
8	15	0	
8	16	0	
8	17	0	
8	18	0	
8	19	0	
8	20	0	
8	21	0	
8	22	0	
8	23	0	
8	24	0	
8	25	0	
8	26	0	
8	27	0	
8	28	0	
8	29	0	
8	30	0	
8	31	0	
8	32	0	
8	33	0	
8	34	0	
8	35	0	
8	36	0	
8	37	0	
8	38	0	
8	39	0	
8	40	0	
8	41	0	
8	42	0	
8	43	0	
8	44	0	
8	45	0	
8	46	0	
8	47	0	
8	48	0	
8	49	0	
8	50	0	
9	0	0	
9	1	0	
9	2	0	
9	3	0	
9	4	0	
9	5	0	
9	6	0	
9	7	0	
9	8	0	
9	9	0	
9	10	0	
9	11	0	
9	12	0	
9	13	0	
9	14	0	
9	15	0	
9	16	0	
9	17	0	
9	18	0	
9	19	0	
9	20	0	
9	21	0	
9	22	0	
9	23	0	
9	24	0	
9	25	0	
9	26	0	
9	27	0	
9	28	0	
9	29	0	
9	30	0	
9	31	0	
9	32	0	
9	33	0	
9	34	0	
9	35	0	
9	36	0	
9	37	0	
9	38	0	
9	39	0	
9	40	0	
9	41	0	
9	42	0	
9	43	0	
9	44	0	
9	45	0	
9	46	0	
9	47	0	
9	48	0	
9	49	0	
9	50	0	
10	0	0	
10	1	0	
10	2	0	
10	3	0	
10	4	0	
10	5	0	
10	6	0	
10	7	0	
10	8	0	
10	9	0	
10	10	0	
10	11	0	
10	12	0	
10	13	0	
10	14	0	
10	15	0	
10	16	0	
10	17	0	
10	18	0	
10	19	0	
10	20	0	
10	21	0	
10	22	0	
10	23	0	
10	24	0	
10	25	0	
10	26	0	
10	27	0	
10	28	0	
10	29	0	
10	30	0	
10	31	0	
10	32	0	
10	33	0	
10	34	0	
10	35	0	
10	36	0	
10	37	0	
10	38	0	
10	39	0	
10	40	0	
10	41	0	
10	42	0	
10	43	0	
10	44	0	
10	45	0	
10	46	0	
10	47	0	
10	48	0	
10	49	0	
10	50	0	
11	0	0	
11	1	0	
11	2	0	
11	3	0	
11	4	0	
11	5	0	
11	6	0	
11	7	0	
11	8	0	
11	9	0	
11	10	0	
11	11	0	
11	12	0	
11	13	0	
11	14	0	
11	15	0	
11	16	0	
11	17	0	
11	18	0	
11	19	0	
11	20	0	
11	21	0	
11	22	0	
11	23	0	
11	24	0	
11	25	0	
11	26	0	
11	27	0	
11	28	0	
11	29	0	
11	30	0	
11	31	0	
11	32	0	
11	33	0	
11	34	0	
11	35	0	
11	36	0	
11	37	0	
11	38	0	
11	39	0	
11	40	0	
11	41	0	
11	42	0	
11	43	0	
11	44	0	
11	45	0	
11	46	0	
11	47	0	
11	48	0	
11	49	0	
11	50	0	
12	0	0	
12	1	0	
12	2	0	
12	3	0	
12	4	0	
12	5	0	
12	6	0	
12	7	0	
12	8	0	
12	9	0	
12	10	0	
12	11	0	
12	12	0	
12	13	0	
12	14	0	
12	15	0	
12	16	0	
12	17	0	
12	18	0	
12	19	0	
12	20	0	
12	21	0	
12	22	0	
12	23	0	
12	24	0	
12	25	0	
12	26	0	
12	27	0	
12	28	0	
12	29	0	
12	30	0	
12	31	0	
12	32	0	
12	33	0	
12	34	0	
12	35	0	
12	36	0	
12	37	0	
12	38	0	
12	39	0	
12	40	0	
12	41	0	
12	42	0	
12	43	0	
12	44	0	
12	45	0	
12	46	0	
12	47	0	
12	48	0	
12	49	0	
12	50	0	
13	0	0	
13	1	0	
13	2	0	
13	3	0	
13	4	0	
13	5	0	
13	6	0	
13	7	0	
13	8	0	
13	9	0	
13	10	0	
13	11	0	
13	12	0	
13	13	0	
13	14	0	
13	15	0	
13	16	0	
13	17	0	
13	18	0	
13	19	0	
13	20	0	
13	21	0	
13	22	0	
13	23	0	
13	24	0	
13	25	0	
13	26	0	
13	27	0	
13	28	0	
13	29	0	
13	30	0	
13	31	0	
13	32	0	
13	33	0	
13	34	0	
13	35	0	
13	36	0	
13	37	0	
13	38	0	
13	39	0	
13	40	0	
13	41	0	
13	42	0	
13	43	0	
13	44	0	
13	45	0	
13	46	0	
13	47	0	
13	48	0	
13	49	0	
13	50	0	
14	0	0	
14	1	0	
14	2	0	
14	3	0	
14	4	0	
14	5	0	
14	6	0	
14	7	0	
14	8	0	
14	9	0	
14	10	0	
14	11	0	
14	12	0	
14	13	0	
14	14	0	
14	15	0	
14	16	0	
14	17	0	
14	18	0	
14	19	0	
14	20	0	
14	21	0	
14	22	0	
14	23	0	
14	24	0	
14	25	0	
14	26	0	
14	27	0	
14	28	0	
14	29	0	
14	30	0	
14	31	0	
14	32	0	
14	33	0	
14	34	0	
14	35	0	
14	36	0	
14	37	0	
14	38	0	
14	39	0	
14	40	0	
14	41	0	
14	42	0	
14	43	0	
14	44	0	
14	45	0	
14	46	0	
14	47	0	
14	48	0	
14	49	0	
14	50	0	
15	0	0	
15	1	0	
15	2	0	
15	3	0	
15	4	0	
15	5	0	
15	6	0	
15	7	0	
15	8	0	
15	9	0	
15	10	0	
15	11	0	
15	12	0	
15	13	0	
15	14	0	
15	15	0	
15	16	0	
15	17	0	
15	18	0	
15	19	0	
15	20	0	
15	21	0	
15	22	0	
15	23	0	
15	24	0	
15	25	0	
15	26	0	
15	27	0	
15	28	0	
15	29	0	
15	30	0	
15	31	0	
15	32	0	
15	33	0	
15	34	0	
15	35	0	
15	36	0	
15	37	0	
15	38	0	
15	39	0	
15	40	0	
15	41	0	
15	42	0	
15	43	0	
15	44	0	
15	45	0	
15	46	0	
15	47	0	
15	48	0	
15	49	0	
15	50	0	
16	0	0	
16	1	0	
16	2	0	
16	3	0	
16	4	0	
16	5	0	
16	6	0	
16	7	0	
16	8	0	
16	9	0	
16	10	0	
16	11	0	
16	12	0	
16	13	0	
16	14	0	
16	15	0	
16	16	0	
16	17	0	
16	18	0	
16	19	0	
16	20	0	
16	21	0	
16	22	0	
16	23	0	
16	24	0	
16	25	0	
16	26	0	
16	27	0	
16	28	0	
16	29	0	
16	30	0	
16	31	0	
16	32	0	
16	33	0	
16	34	0	
16	35	0	
16	36	0	
16	37	0	
16	38	0	
16	39	0	
16	40	0	
16	41	0	
16	42	0	
16	43	0	
16	44	0	
16	45	0	
16	46	0	
16	47	0	
16	48	0	
16	49	0	
16	50	0	
17	0	0	
17	1	0	
17	2	0	
17	3	0	
17	4	0	
17	5	0	
17	6	0	
17	7	0	
17	8	0	
17	9	0	
17	10	0	
17	11	0	
17	12	0	
17	13	0	
17	14	0	
17	15	0	
17	16	0	
17	17	0	
17	18	0	
17	19	0	
17	20	0	
17	21	0	
17	22	0	
17	23	0	
17	24	0	
17	25	0	
17	26	0	
17	27	0	
17	28	0	
17	29	0	
17	30	0	
17	31	0	
17	32	0	
17	33	0	
17	34	0	
17	35	0	
17	36	0	
17	37	0	
17	38	0	
17	39	0	
17	40	0	
17	41	0	
17	42	0	
17	43	0	
17	44	0	
17	45	0	
17	46	0	
17	47	0	
17	48	0	
17	49	0	
17	50	0	
18	0	0	
18	1	0	
18	2	0	
18	3	0	
18	4	0	
18	5	0	
18	6	0	
18	7	0	
18	8	0	
18	9	0	
18	10	0	
18	11	0	
18	12	0	
18	13	0	
18	14	0	
18	15	0	
18	16	0	
18	17	0	
18	18	0	
18	19	0	
18	20	0	
18	21	0	
18	22	0	
18	23	0	
18	24	0	
18	25	0	
18	26	0	
18	27	0	
18	28	0	
18	29	0	
18	30	0	
18	31	0	
18	32	0	
18	33	0	
18	34	0	
18	35	0	
18	36	0	
18	37	0	
18	38	0	
18	39	0	
18	40	0	
18	41	0	
18	42	0	
18	43	0	
18	44	0	
18	45	0	
18	46	0	
18	47	0	
18	48	0	
18	49	0	
18	50	0	
19	0	0	
19	1	0	
19	2	0	
19	3	0	
19	4	0	
19	5	0	
19	6	0	
19	7	0	
19	8	0	
19	9	0	
19	10	0	
19	11	0	
19	12	0	
19	13	0	
19	14	0	
19	15	0	
19	16	0	
19	17	0	
19	18	0	
19	19	0	
19	20	0	
19	21	0	
19	22	0	
19	23	0	
19	24	0	
19	25	0	
19	26	0	
19	27	0	
19	28	0	
19	29	0	
19	30	0	
19	31	0	
19	32	0	
19	33	0	
19	34	0	
19	35	0	
19	36	0	
19	37	0	
19	38	0	
19	39	0	
19	40	0	
19	41	0	
19	42	0	
19	43	0	
19	44	0	
19	45	0	
19	46	0	
19	47	0	
19	48	0	
19	49	0	
19	50	0	
20	0	0	
20	1	0	
20	2	0	
20	3	0	
20	4	0	
20	5	0	
20	6	0	
20	7	0	
20	8	0	
20	9	0	
20	10	0	
20	11	0	
20	12	0	
20	13	0	
20	14	0	
20	15	0	
20	16	0	
20	17	0	
20	18	0	
20	19	0	
20	20	0	
20	21	0	
20	22	0	
20	23	0	
20	24	0	
20	25	0	
20	26	0	
20	27	0	
20	28	0	
20	29	0	
20	30	0	
20	31	0	
20	32	0	
20	33	0	
20	34	0	
20	35	0	
20	36	0	
20	37	0	
20	38	0	
20	39	0	
20	40	0	
20	41	0	
20	42	0	
20	43	0	
20	44	0	
20	45	0	
20	46	0	
20	47	0	
20	48	0	
20	49	0	
20	50	0	
21	0	0	
21	1	0	
21	2	0	
21	3	0	
21	4	0	
21	5	0	
21	6	0	
21	7	0	
21	8	0	
21	9	0	
21	10	0	
21	11	0	
21	12	0	
21	13	0	
21	14	0	
21	15	0	
21	16	0	
21	17	0	
21	18	0	
21	19	0	
21	20	0	
21	21	0	
21	22	0	
21	23	0	
21	24	0	
21	25	0	
21	26	0	
21	27	0	
21	28	0	
21	29	0	
21	30	0	
21	31	0	
21	32	0	
21	33	0	
21	34	0	
21	35	0	
21	36	0	
21	37	0	
21	38	0	
21	39	0	
21	40	0	
21	41	0	
21	42	0	
21	43	0	
21	44	0	
21	45	0	
21	46	0	
21	47	0	
21	48	0	
21	49	0	
21	50	0	
22	0	0	
22	1	0	
22	2	0	
22	3	0	
22	4	0	
22	5	0	
22	6	0	
22	7	0	
22	8	0	
22	9	0	
22	10	0	
22	11	0	
22	12	0	
22	13	0	
22	14	0	
22	15	0	
22	16	0	
22	17	0	
22	18	0	
22	19	0	
22	20	0	
22	21	0	
22	22	0	
22	23	0	
22	24	0	
22	25	0	
22	26	0	
22	27	0	
22	28	0	
22	29	0	
22	30	0	
22	31	0	
22	32	0	
22	33	0	
22	34	0	
22	35	0	
22	36	0	
22	37	0	
22	38	0	
22	39	0	
22	40	0	
22	41	0	
22	42	0	
22	43	0	
22	44	0	
22	45	0	
22	46	0	
22	47	0	
22	48	0	
22	49	0	
22	50	0	
23	0	0	
23	1	0	
23	2	0	
23	3	0	
23	4	0	
23	5	0	
23	6	0	
23	7	0	
23	8	0	
23	9	0	
23	10	0	
[...]
POINT_DATA	7701
VECTORS d float
3.58188e-016	-0.00150316	0	
3.4673e-016	-0.000369849	0	
3.19365e-016	-0.00150032	0	
2.96448e-016	-0.000377167	0	
2.6908e-016	-0.00149716	0	
2.57622e-016	-0.000384159	0	
7.2374e-017	-0.0014976	0	
3.12808e-016	-0.000390323	0	
1.40222e-016	-0.00150273	0	
4.15871e-016	-0.000397628	0	
2.01629e-016	-0.00150922	0	
5.16944e-016	-0.000405637	0	
2.87566e-016	-0.00151644	0	
6.03644e-016	-0.000414954	0	
3.86159e-016	-0.00152338	0	
6.71215e-016	-0.000426059	0	
4.59583e-016	-0.0015293	0	
7.66472e-016	-0.000438138	0	
4.75306e-016	-0.00153543	0	
8.44356e-016	-0.000449505	0	
3.25888e-016	-0.00154349	0	
6.78542e-016	-0.000458155	0	
3.3385e-016	-0.0015485	0	
6.48093e-016	-0.00046644	0	
1.56267e-016	-0.00155869	0	
2.37403e-016	-0.000470506	0	
1.41436e-016	-0.00155189	0	
2.49796e-016	-0.000477081	0	
-1.35365e-016	-0.00156106	0	
1.24947e-016	-0.000484635	0	
-2.21975e-016	-0.00156851	0	
-3.95708e-017	-0.000493432	0	
-1.37871e-016	-0.00157203	0	
7.61232e-017	-0.000498923	0	
1.13868e-016	-0.00157849	0	
1.17693e-016	-0.000500735	0	
1.18075e-016	-0.00157756	0	
-7.77182e-017	-0.000506984	0	
1.6835e-016	-0.00157546	0	
-8.27251e-018	-0.000515314	0	
1.84773e-016	-0.00157695	0	
-2.59345e-017	-0.000522301	0	
1.28089e-016	-0.00157926	0	
-1.01783e-016	-0.000527738	0	
-5.99569e-017	-0.00158067	0	
-1.79725e-016	-0.000530242	0	
-1.69926e-016	-0.00158114	0	
-2.98437e-016	-0.000530437	0	
-3.05103e-016	-0.00158409	0	
-4.15524e-016	-0.000530063	0	
-1.12997e-015	-0.00160172	0	
5.52352e-006	-0.000365951	0	
1.21936e-007	-0.00150168	0	
5.12857e-006	-0.000373454	0	
-2.78975e-007	-0.00149869	0	
4.72751e-006	-0.000380597	0	
-6.73973e-007	-0.00149534	0	
4.89537e-006	-0.000387004	0	
-8.98217e-008	-0.00149992	0	
5.88245e-006	-0.000393921	0	
4.25162e-007	-0.00150576	0	
7.03077e-006	-0.000401739	0	
6.54083e-007	-0.00151292	0	
8.07557e-006	-0.000410219	0	
1.15658e-006	-0.00152014	0	
9.23738e-006	-0.000420599	0	
1.18932e-006	-0.00152673	0	
1.00933e-005	-0.000432435	0	
1.17228e-006	-0.00153222	0	
1.12048e-005	-0.000444303	0	
9.33166e-007	-0.00153904	0	
1.10003e-005	-0.000454123	0	
-1.19639e-006	-0.00154709	0	
8.99799e-006	-0.000462293	0	
1.05182e-006	-0.00155115	0	
6.14508e-006	-0.000466281	0	
-3.33639e-006	-0.00155518	0	
6.01862e-006	-0.000474298	0	
-1.86328e-006	-0.00155712	0	
5.35476e-006	-0.000480216	0	
-2.02279e-006	-0.0015642	0	
4.50562e-006	-0.000487932	0	
-2.47811e-006	-0.00157134	0	
4.67e-006	-0.000500212	0	
-1.20548e-006	-0.00157792	0	
1.79954e-006	-0.000499473	0	
5.91242e-008	-0.00157804	0	
1.79708e-006	-0.000502013	0	
5.72587e-007	-0.00157626	0	
8.56774e-007	-0.000511155	0	
2.46726e-006	-0.00157572	0	
6.66533e-007	-0.000518831	0	
2.7166e-006	-0.00157834	0	
-2.21929e-007	-0.000525539	0	
1.73474e-006	-0.00158021	0	
-1.33188e-006	-0.000529593	0	
-1.01226e-007	-0.0015801	0	
-2.11287e-006	-0.000529565	0	
-3.17737e-007	-0.0015812	0	
-3.51205e-006	-0.000528959	0	
8.4832e-007	-0.00158619	0	
-8.12217e-006	-0.000521147	0	
6.52763e-007	-0.00150274	0	
1.06501e-005	-0.00036946	0	
-1.54985e-007	-0.00149992	0	
9.85413e-006	-0.000376764	0	
-9.50935e-007	-0.00149677	0	
9.04592e-006	-0.000383742	0	
-7.84575e-007	-0.00149722	0	
1.07483e-005	-0.000390247	0	
5.24001e-007	-0.00150247	0	
1.2897e-005	-0.000398137	0	
1.32814e-006	-0.0015092	0	
1.5151e-005	-0.000406509	0	
1.69835e-006	-0.00151724	0	
1.71245e-005	-0.000415554	0	
2.97053e-006	-0.00152389	0	
1.97038e-005	-0.00042769	0	
1.75698e-006	-0.0015305	0	
2.12767e-005	-0.000439654	0	
2.05243e-006	-0.001535	0	
2.30093e-005	-0.000449957	0	
4.65994e-007	-0.00154249	0	
1.90052e-005	-0.000456489	0	
-2.65413e-006	-0.00155018	0	
2.31767e-005	-0.000470898	0	
-4.56015e-006	-0.00155589	0	
1.12014e-005	-0.000470119	0	
-5.43792e-006	-0.0015538	0	
1.21239e-005	-0.000475276	0	
-4.58895e-006	-0.00155983	0	
9.61683e-006	-0.000482005	0	
-3.88161e-006	-0.00156611	0	
6.73238e-006	-0.000489028	0	
-8.44383e-007	-0.00157408	0	
3.31719e-006	-0.000497371	0	
1.36182e-007	-0.00157852	0	
3.59584e-006	-0.000500762	0	
9.19695e-008	-0.00157758	0	
2.78989e-006	-0.00050651	0	
2.37899e-006	-0.00157608	0	
1.12148e-006	-0.00051439	0	
7.62796e-006	-0.001577	0	
-7.27961e-007	-0.000522175	0	
3.92062e-006	-0.0015782	0	
-2.78368e-007	-0.000526783	0	
1.79228e-007	-0.0015779	0	
-2.96594e-006	-0.00052752	0	
-1.06907e-006	-0.00157846	0	
-5.20038e-006	-0.000526928	0	
-1.76471e-006	-0.00157944	0	
-8.74532e-006	-0.000522149	0	
-8.62158e-006	-0.00157804	0	
1.65564e-005	-0.000365188	0	
3.79692e-007	-0.00150086	0	
1.53719e-005	-0.000372662	0	
-8.22702e-007	-0.0014979	0	
1.41684e-005	-0.000379777	0	
-2.00806e-006	-0.00149458	0	
1.4683e-005	-0.000386498	0	
-7.4984e-008	-0.00149925	0	
1.78716e-005	-0.000394216	0	
1.94045e-006	-0.0015055	0	
2.09249e-005	-0.000403281	0	
2.79347e-006	-0.00151337	0	
2.41511e-005	-0.000411846	0	
3.32796e-006	-0.00152255	0	
2.73498e-005	-0.000422425	0	
5.23865e-006	-0.00152691	0	
3.13373e-005	-0.000436225	0	
2.79662e-007	-0.00153483	0	
3.57008e-005	-0.00044919	0	
1.45487e-006	-0.00153902	0	
2.87709e-005	-0.0004491	0	
1.85452e-007	-0.00154171	0	
2.46684e-005	-0.000454972	0	
2.18407e-007	-0.00154831	0	
1.75984e-005	-0.00046412	0	
-5.88035e-006	-0.00155275	0	
1.40506e-005	-0.00047192	0	
-3.91032e-006	-0.00155651	0	
1.27212e-005	-0.000477463	0	
-3.26034e-006	-0.00156248	0	
9.98317e-006	-0.000484404	0	
-1.74258e-006	-0.00156966	0	
7.63705e-006	-0.00049153	0	
-1.03383e-006	-0.00157522	0	
5.60899e-006	-0.000499334	0	
1.85555e-007	-0.00157807	0	
5.25821e-006	-0.000502052	0	
1.05919e-006	-0.00157679	0	
3.28246e-006	-0.000509578	0	
5.41838e-006	-0.00157671	0	
1.58139e-006	-0.000516436	0	
4.33873e-006	-0.00157225	0	
2.14293e-006	-0.000522674	0	
1.1235e-006	-0.00157472	0	
-1.96588e-006	-0.000524211	0	
-1.42754e-006	-0.00157561	0	
-5.62313e-006	-0.0005244	0	
-3.73931e-006	-0.00157521	0	
-9.24283e-006	-0.000521906	0	
-8.79191e-006	-0.00157369	0	
-1.40049e-005	-0.000519159	0	
1.33297e-006	-0.00150149	0	
2.12723e-005	-0.000368293	0	
-2.81794e-007	-0.00149871	0	
1.96803e-005	-0.000375554	0	
-1.87374e-006	-0.00149561	0	
1.80633e-005	-0.000382491	0	
-1.28654e-006	-0.00149635	0	
2.15312e-005	-0.000390203	0	
1.49378e-006	-0.00150149	0	
2.66826e-005	-0.000399068	0	
4.3376e-006	-0.00150965	0	
2.90433e-005	-0.000409437	0	
5.33053e-006	-0.00151866	0	
3.36277e-005	-0.000417312	0	
5.89652e-006	-0.00152846	0	
4.20097e-005	-0.00043557	0	
3.85496e-006	-0.00152947	0	
3.56139e-005	-0.00043558	0	
4.24544e-006	-0.0015331	0	
3.20171e-005	-0.000444166	0	
1.12129e-006	-0.00153796	0	
2.84724e-005	-0.000449536	0	
6.97492e-007	-0.0015429	0	
2.45817e-005	-0.000455898	0	
-2.6398e-006	-0.00154685	0	
1.84453e-005	-0.000464664	0	
-4.2663e-006	-0.00155266	0	
1.58544e-005	-0.000472555	0	
-2.89509e-006	-0.00155832	0	
1.36053e-005	-0.000479225	0	
-1.99256e-006	-0.00156507	0	
1.10722e-005	-0.000486475	0	
-1.22485e-006	-0.00157166	0	
8.5799e-006	-0.000494709	0	
6.09424e-007	-0.00157846	0	
7.32144e-006	-0.000500605	0	
-1.97203e-007	-0.0015773	0	
5.28067e-006	-0.000505654	0	
3.4743e-006	-0.00157758	0	
3.79392e-006	-0.000512026	0	
2.57817e-006	-0.00157293	0	
4.17438e-006	-0.000518567	0	
2.82109e-006	-0.00157044	0	
4.03895e-007	-0.000520563	0	
-8.43696e-007	-0.0015729	0	
-4.70869e-006	-0.000521145	0	
-4.83974e-006	-0.00157173	0	
-9.02201e-006	-0.000520142	0	
-9.61094e-006	-0.00156981	0	
-1.37442e-005	-0.00051814	0	
-1.7268e-005	-0.00156616	0	
2.75461e-005	-0.000363662	0	
6.79918e-007	-0.00149922	0	
2.55726e-005	-0.000371078	0	
-1.32486e-006	-0.00149631	0	
2.35676e-005	-0.000378136	0	
-3.30103e-006	-0.00149305	0	
2.47503e-005	-0.000384812	0	
6.17979e-007	-0.00149808	0	
3.04361e-005	-0.00039611	0	
3.70399e-006	-0.0015049	0	
3.69119e-005	-0.000403746	0	
7.78188e-006	-0.00151496	0	
3.53676e-005	-0.000416254	0	
1.29906e-005	-0.00152786	0	
3.99341e-005	-0.000423141	0	
6.62381e-006	-0.00152378	0	
3.84086e-005	-0.000430721	0	
3.99584e-006	-0.00152872	0	
3.6483e-005	-0.00043648	0	
2.7486e-006	-0.00153191	0	
3.21988e-005	-0.000443216	0	
1.1722e-006	-0.0015375	0	
2.90057e-005	-0.000449524	0	
-6.32849e-007	-0.00154202	0	
2.4435e-005	-0.000457012	0	
-2.79101e-006	-0.00154712	0	
2.00743e-005	-0.00046556	0	
-2.88629e-006	-0.00155341	0	
1.74181e-005	-0.000473356	0	
-1.93971e-006	-0.00155999	0	
1.49178e-005	-0.000480788	0	
-1.34003e-006	-0.00156705	0	
1.21799e-005	-0.000488955	0	
-6.92678e-008	-0.00157423	0	
1.03376e-005	-0.000498382	0	
2.17399e-007	-0.00157762	0	
8.5171e-006	-0.000501803	0	
-1.1787e-006	-0.00157637	0	
6.77232e-006	-0.000507395	0	
2.37297e-008	-0.00157342	0	
6.89876e-006	-0.000514246	0	
8.07799e-007	-0.00157047	0	
5.62106e-006	-0.000519164	0	
5.60813e-007	-0.00157081	0	
-2.5919e-006	-0.000517374	0	
-5.13912e-006	-0.00156857	0	
-7.87782e-006	-0.000517193	0	
-1.03761e-005	-0.00156625	0	
-1.28789e-005	-0.000516208	0	
-1.7271e-005	-0.00156289	0	
-1.86879e-005	-0.000515384	0	
2.07322e-006	-0.00149941	0	
3.18364e-005	-0.000366353	0	
-3.54776e-007	-0.0014967	0	
2.94495e-005	-0.000373537	0	
-2.74171e-006	-0.00149366	0	
2.70272e-005	-0.000380404	0	
-2.94714e-006	-0.00149567	0	
3.49235e-005	-0.000389595	0	
2.97334e-006	-0.00149932	0	
4.1495e-005	-0.00040395	0	
8.92891e-006	-0.00151438	0	
4.47475e-005	-0.000407659	0	
3.6479e-006	-0.00151043	0	
4.60442e-005	-0.00041353	0	
5.88048e-006	-0.00151925	0	
4.21907e-005	-0.000423136	0	
4.90367e-006	-0.00152216	0	
3.95233e-005	-0.00042969	0	
3.33128e-006	-0.00152692	0	
3.67284e-005	-0.000436252	0	
2.06426e-006	-0.00153149	0	
3.31172e-005	-0.000442923	0	
5.37882e-007	-0.00153672	0	
2.94674e-005	-0.000449986	0	
-1.18517e-006	-0.00154177	0	
2.5276e-005	-0.000458004	0	
-2.14793e-006	-0.00154768	0	
2.17652e-005	-0.0004663	0	
-1.84207e-006	-0.00155431	0	
1.90521e-005	-0.000474236	0	
-1.22399e-006	-0.00156134	0	
1.64028e-005	-0.000482443	0	
-6.83712e-007	-0.00156911	0	
1.36715e-005	-0.000491491	0	
1.80321e-006	-0.00157678	0	
1.1377e-005	-0.00049873	0	
-1.28026e-006	-0.00157572	0	
9.31601e-006	-0.000502742	0	
-3.23995e-006	-0.00157405	0	
1.00224e-005	-0.000510325	0	
-1.91773e-006	-0.00157114	0	
9.0345e-006	-0.000515497	0	
-2.20398e-006	-0.00156838	0	
1.1799e-006	-0.000512506	0	
-4.91002e-006	-0.0015656	0	
-5.80191e-006	-0.000513296	0	
-1.08095e-005	-0.00156283	0	
-1.12917e-005	-0.000513261	0	
-1.74996e-005	-0.00155954	0	
-1.71379e-005	-0.000512908	0	
-2.59634e-005	-0.00155499	0	
3.84678e-005	-0.000361375	0	
1.05663e-006	-0.00149676	0	
3.56936e-005	-0.000368709	0	
-1.76744e-006	-0.00149393	0	
3.2904e-005	-0.000375667	0	
-4.52476e-006	-0.00149075	0	
3.68979e-005	-0.000383715	0	
-3.15481e-006	-0.00149774	0	
5.37013e-005	-0.000400851	0	
-2.46465e-007	-0.00150025	0	
4.93649e-005	-0.000399578	0	
3.32216e-006	-0.00150729	0	
4.7065e-005	-0.000408491	0	
5.57837e-006	-0.00151235	0	
4.68707e-005	-0.000414097	0	
4.55757e-006	-0.00151662	0	
4.35465e-005	-0.000422466	0	
3.85268e-006	-0.00152099	0	
4.06545e-005	-0.000429251	0	
2.69299e-006	-0.00152589	0	
3.75477e-005	-0.000436027	0	
1.45547e-006	-0.00153094	0	
3.4067e-005	-0.000443016	0	
4.37397e-008	-0.00153623	0	
3.0341e-005	-0.000450584	0	
-1.10699e-006	-0.00154185	0	
2.66381e-005	-0.000458694	0	
-1.43239e-006	-0.00154816	0	
2.34969e-005	-0.000466853	0	
-1.0908e-006	-0.00155497	0	
2.07617e-005	-0.00047505	0	
-5.952e-007	-0.00156236	0	
1.81631e-005	-0.000483903	0	
-1.21688e-007	-0.00157116	0	
1.57494e-005	-0.000493847	0	
-4.19773e-008	-0.0015737	0	
1.19636e-005	-0.00049848	0	
-3.81938e-006	-0.00157256	0	
9.30386e-006	-0.000501843	0	
-4.56028e-006	-0.00156706	0	
8.20585e-006	-0.000506182	0	
-2.8053e-006	-0.00156355	0	
8.5876e-007	-0.000503883	0	
-3.88236e-006	-0.00156271	0	
-2.77394e-006	-0.000508325	0	
-1.08759e-005	-0.00155951	0	
-8.93787e-006	-0.0005094	0	
-1.7727e-005	-0.00155616	0	
-1.49923e-005	-0.000509691	0	
-2.57082e-005	-0.00155197	0	
-2.18217e-005	-0.000510143	0	
2.91584e-006	-0.00149649	0	
4.23133e-005	-0.00036363	0	
-3.40597e-007	-0.00149388	0	
3.91128e-005	-0.000370733	0	
-3.54378e-006	-0.00149093	0	
3.59499e-005	-0.000377476	0	
-2.12318e-006	-0.00148786	0	
4.42478e-005	-0.000382088	0	
3.30697e-006	-0.00149354	0	
4.92476e-005	-0.000395047	0	
3.0376e-006	-0.00150154	0	
5.02983e-005	-0.000400491	0	
4.13828e-006	-0.00150645	0	
4.92849e-005	-0.000407941	0	
4.79771e-006	-0.00151113	0	
4.77458e-005	-0.000414641	0	
3.89714e-006	-0.00151533	0	
4.48017e-005	-0.000422112	0	
3.13786e-006	-0.00152008	0	
4.18328e-005	-0.000429003	0	
2.11944e-006	-0.00152516	0	
3.86351e-005	-0.000435966	0	
9.68356e-007	-0.00153042	0	
3.51709e-005	-0.000443264	0	
-1.39998e-007	-0.00153595	0	
3.15979e-005	-0.000451025	0	
-8.13303e-007	-0.0015419	0	
2.82295e-005	-0.000459046	0	
-8.86186e-007	-0.00154831	0	
2.52423e-005	-0.000467114	0	
-5.73623e-007	-0.00155513	0	
2.25261e-005	-0.000475416	0	
-5.61427e-008	-0.00156262	0	
2.00526e-005	-0.000484419	0	
2.50306e-008	-0.00157275	0	
1.6309e-005	-0.000492835	0	
-2.05271e-006	-0.00156924	0	
9.54841e-006	-0.000495557	0	
-7.52612e-006	-0.00156415	0	
7.40472e-006	-0.000499066	0	
-5.75308e-006	-0.00156064	0	
4.33109e-006	-0.000499973	0	
-4.42096e-006	-0.00156095	0	
7.41292e-007	-0.000502782	0	
-1.05463e-005	-0.00155637	0	
-5.81807e-006	-0.000504691	0	
-1.78137e-005	-0.00155275	0	
-1.22027e-005	-0.000505762	0	
-2.56289e-005	-0.00154881	0	
-1.90599e-005	-0.000506521	0	
-3.47199e-005	-0.00154373	0	
4.9308e-005	-0.000358294	0	
1.54258e-006	-0.00149348	0	
4.57072e-005	-0.000365539	0	
-2.10522e-006	-0.00149076	0	
4.20981e-005	-0.000372433	0	
-5.62322e-006	-0.00148773	0	
4.30804e-005	-0.000380256	0	
3.35786e-007	-0.0014909	0	
5.04189e-005	-0.000387614	0	
3.57141e-006	-0.00149437	0	
5.14585e-005	-0.000394617	0	
3.78765e-006	-0.00150089	0	
5.20141e-005	-0.000401074	0	
4.19352e-006	-0.00150552	0	
5.09612e-005	-0.000407941	0	
4.03484e-006	-0.00150991	0	
4.8903e-005	-0.000414842	0	
3.32124e-006	-0.0015144	0	
4.61106e-005	-0.000421919	0	
2.5635e-006	-0.00151934	0	
4.31147e-005	-0.000428866	0	
1.63306e-006	-0.00152454	0	
3.98851e-005	-0.00043599	0	
6.46911e-007	-0.00152996	0	
3.64772e-005	-0.000443438	0	
-1.65603e-007	-0.00153564	0	
3.30775e-005	-0.000451165	0	
-5.88661e-007	-0.00154165	0	
2.98767e-005	-0.000458989	0	
-6.26272e-007	-0.00154792	0	
2.69163e-005	-0.00046682	0	
-3.88748e-007	-0.00155439	0	
2.40903e-005	-0.000474653	0	
1.22104e-007	-0.00156118	0	
2.02266e-005	-0.000481096	0	
-1.89052e-007	-0.00156607	0	
1.50784e-005	-0.000488974	0	
-7.24161e-006	-0.00156176	0	
3.56397e-006	-0.000495527	0	
-9.2699e-006	-0.00155745	0	
6.15251e-006	-0.000494457	0	
-8.20292e-006	-0.00155589	0	
5.5861e-006	-0.000496752	0	
-1.07419e-005	-0.00155412	0	
-2.10736e-006	-0.000499358	0	
-1.77544e-005	-0.00154939	0	
-8.74741e-006	-0.000501162	0	
-2.55428e-005	-0.00154555	0	
-1.57968e-005	-0.000502404	0	
-3.43025e-005	-0.00154093	0	
-2.35089e-005	-0.000503748	0	
3.88782e-006	-0.00149272	0	
5.26835e-005	-0.000360079	0	
-2.09751e-007	-0.00149022	0	
4.86614e-005	-0.000367101	0	
-4.2101e-006	-0.00148741	0	
4.46727e-005	-0.000373802	0	
-3.55757e-006	-0.00148749	0	
5.01177e-005	-0.000382427	0	
1.37908e-006	-0.0014907	0	
5.35985e-005	-0.000388907	0	
3.3623e-006	-0.00149487	0	
5.41227e-005	-0.000395013	0	
3.70256e-006	-0.00150005	0	
5.39187e-005	-0.000401406	0	
3.74483e-006	-0.00150448	0	
5.25152e-005	-0.000408049	0	
3.38453e-006	-0.0015089	0	
5.02647e-005	-0.000414859	0	
2.78362e-006	-0.00151361	0	
4.75144e-005	-0.000421772	0	
2.0707e-006	-0.00151868	0	
4.44985e-005	-0.000428762	0	
1.23625e-006	-0.00152396	0	
4.12648e-005	-0.000435961	0	
4.09372e-007	-0.00152943	0	
3.79221e-005	-0.000443382	0	
-2.40278e-007	-0.00153509	0	
3.46184e-005	-0.000450909	0	
-6.36477e-007	-0.0015409	0	
3.14266e-005	-0.000458379	0	
-8.38136e-007	-0.00154669	0	
2.83112e-005	-0.000465602	0	
-9.64535e-007	-0.00155227	0	
2.47621e-005	-0.000471819	0	
-2.09284e-006	-0.00155695	0	
2.06761e-005	-0.000477842	0	
-4.90273e-006	-0.00155823	0	
1.33111e-005	-0.000484802	0	
-1.6337e-005	-0.00155038	0	
8.82899e-006	-0.000486645	0	
-1.23502e-005	-0.00155111	0	
6.56582e-006	-0.000490828	0	
-9.4149e-006	-0.00155131	0	
1.81794e-006	-0.000492998	0	
-1.78691e-005	-0.00154619	0	
-4.68785e-006	-0.000495937	0	
-2.53536e-005	-0.00154224	0	
-1.19749e-005	-0.000497819	0	
-3.39712e-005	-0.00153796	0	
-1.98242e-005	-0.000499294	0	
-4.35307e-005	-0.00153257	0	
6.00483e-005	-0.000354359	0	
2.1398e-006	-0.00148931	0	
5.56065e-005	-0.000361497	0	
-2.31578e-006	-0.00148671	0	
5.11896e-005	-0.00036831	0	
-6.6733e-006	-0.00148381	0	
5.12916e-005	-0.00037599	0	
-1.84289e-006	-0.00148691	0	
5.49508e-005	-0.000383379	0	
1.59647e-006	-0.00149035	0	
5.6534e-005	-0.000389378	0	
2.92424e-006	-0.00149458	0	
5.6587e-005	-0.000395314	0	
3.22191e-006	-0.00149911	0	
5.58029e-005	-0.000401559	0	
3.1472e-006	-0.00150347	0	
5.41128e-005	-0.00040806	0	
2.8049e-006	-0.00150802	0	
5.17692e-005	-0.000414759	0	
2.29086e-006	-0.00151288	0	
4.90074e-005	-0.000421605	0	
1.63371e-006	-0.00151801	0	
4.59606e-005	-0.000428602	0	
8.69964e-007	-0.0015233	0	
4.27171e-005	-0.000435758	0	
1.09099e-007	-0.00152868	0	
3.93937e-005	-0.000442993	0	
-5.63652e-007	-0.00153411	0	
3.60664e-005	-0.00045016	0	
-1.17223e-006	-0.00153944	0	
3.2692e-005	-0.000457063	0	
-1.87782e-006	-0.00154437	0	
2.91555e-005	-0.000463266	0	
-3.34545e-006	-0.00154857	0	
2.5283e-005	-0.000468849	0	
-6.59087e-006	-0.00155067	0	
2.06103e-005	-0.000474447	0	
-1.49873e-005	-0.00154803	0	
1.26784e-005	-0.000481834	0	
-1.95451e-005	-0.00154493	0	
1.33194e-005	-0.000480024	0	
-1.66299e-005	-0.00154388	0	
6.46062e-006	-0.000485643	0	
-1.79228e-005	-0.00154261	0	
-1.77582e-007	-0.000489969	0	
-2.50961e-005	-0.00153897	0	
-7.58271e-006	-0.000492764	0	
-3.35291e-005	-0.00153489	0	
-1.57269e-005	-0.000494595	0	
-4.29783e-005	-0.00152997	0	
-2.42649e-005	-0.00049638	0	
4.96087e-006	-0.00148805	0	
6.29255e-005	-0.000355636	0	
2.54525e-008	-0.00148565	0	
5.8103e-005	-0.000362547	0	
-4.77204e-006	-0.00148295	0	
5.32517e-005	-0.000369136	0	
-4.84927e-006	-0.00148297	0	
5.66876e-005	-0.000377194	0	
-9.81363e-007	-0.00148616	0	
5.87188e-005	-0.000383738	0	
1.37868e-006	-0.00148976	0	
5.92796e-005	-0.000389535	0	
2.33239e-006	-0.00149384	0	
5.88524e-005	-0.000395391	0	
2.59765e-006	-0.00149811	0	
5.76724e-005	-0.000401526	0	
2.55053e-006	-0.00150252	0	
5.57918e-005	-0.000407929	0	
2.28946e-006	-0.0015072	0	
5.33737e-005	-0.000414559	0	
1.83922e-006	-0.00151216	0	
5.05586e-005	-0.000421368	0	
1.20225e-006	-0.00151728	0	
4.74491e-005	-0.000428308	0	
4.2413e-007	-0.00152245	0	
4.41527e-005	-0.000435294	0	
-4.21938e-007	-0.00152757	0	
4.07657e-005	-0.000442197	0	
-1.33818e-006	-0.00153253	0	
3.72661e-005	-0.00044885	0	
-2.46257e-006	-0.00153714	0	
3.34817e-005	-0.000455063	0	
-4.20291e-006	-0.00154088	0	
2.96554e-005	-0.000460651	0	
-7.23733e-006	-0.00154352	0	
2.50944e-005	-0.000466188	0	
-1.28692e-005	-0.00154322	0	
1.8845e-005	-0.000472634	0	
-1.8864e-005	-0.00154326	0	
1.2779e-005	-0.000479637	0	
-1.83862e-005	-0.00154392	0	
8.65528e-006	-0.000481169	0	
-1.94756e-005	-0.00154006	0	
4.74304e-006	-0.000483659	0	
-2.47704e-005	-0.00153578	0	
-2.66221e-006	-0.000487216	0	
-3.28592e-005	-0.00153182	0	
-1.11707e-005	-0.000489625	0	
-4.23333e-005	-0.00152714	0	
-2.00205e-005	-0.000491357	0	
-5.23101e-005	-0.00152163	0	
7.06372e-005	-0.000349532	0	
2.80882e-006	-0.00148423	0	
6.53772e-005	-0.000356536	0	
-2.42702e-006	-0.00148173	0	
6.01689e-005	-0.000363231	0	
-7.61262e-006	-0.00147894	0	
5.89738e-005	-0.000370557	0	
-3.65851e-006	-0.00148199	0	
6.10276e-005	-0.000377693	0	
-7.51765e-007	-0.00148526	0	
6.19075e-005	-0.000383768	0	
9.13272e-007	-0.00148888	0	
6.18095e-005	-0.000389451	0	
1.67097e-006	-0.00149285	0	
6.10002e-005	-0.000395244	0	
1.97356e-006	-0.00149709	0	
5.95642e-005	-0.000401312	0	
2.02009e-006	-0.00150161	0	
5.75473e-005	-0.000407668	0	
1.83648e-006	-0.0015064	0	
5.50348e-005	-0.000414267	0	
1.3953e-006	-0.00151139	0	
5.21132e-005	-0.000421025	0	
6.87947e-007	-0.00151641	0	
4.88824e-005	-0.000427823	0	
-2.41338e-007	-0.0015213	0	
4.54627e-005	-0.000434511	0	
-1.35666e-006	-0.00152594	0	
4.19128e-005	-0.000440948	0	
-2.77186e-006	-0.00153025	0	
3.80802e-005	-0.000447002	0	
-4.74508e-006	-0.00153394	0	
3.37284e-005	-0.000452802	0	
-7.60987e-006	-0.00153625	0	