# vtk DataFile Version 4.1
vtk output
ASCII
DATASET UNSTRUCTURED_GRID

POINTS	7701	float
0	0	0	
0	1	0	
0	2	0	
0	3	0	
0	4	0	
0	5	0	
0	6	0	
0	7	0	
0	8	0	
0	9	0	
0	10	0	
0	11	0	
0	12	0	
0	13	0	
0	14	0	
0	15	0	
0	16	0	
0	17	0	
0	18	0	
0	19	0	
0	20	0	
0	21	0	
0	22	0	
0	23	0	
0	24	0	
0	25	0	
0	26	0	
0	27	0	
0	28	0	
0	29	0	
0	30	0	
0	31	0	
0	32	0	
0	33	0	
0	34	0	
0	35	0	
0	36	0	
0	37	0	
0	38	0	
0	39	0	
0	40	0	
0	41	0	
0	42	0	
0	43	0	
0	44	0	
0	45	0	
0	46	0	
0	47	0	
0	48	0	
0	49	0	
0	50	0	
1	0	0	
1	1	0	
1	2	0	
1	3	0	
1	4	0	
1	5	0	
1	6	0	
1	7	0	
1	8	0	
1	9	0	
1	10	0	
1	11	0	
1	12	0	
1	13	0	
1	14	0	
1	15	0	
1	16	0	
1	17	0	
1	18	0	
1	19	0	
1	20	0	
1	21	0	
1	22	0	
1	23	0	
1	24	0	
1	25	0	
1	26	0	
1	27	0	
1	28	0	
1	29	0	
1	30	0	
1	31	0	
1	32	0	
1	33	0	
1	34	0	
1	35	0	
1	36	0	
1	37	0	
1	38	0	
1	39	0	
1	40	0	
1	41	0	
1	42	0	
1	43	0	
1	44	0	
1	45	0	
1	46	0	
1	47	0	
1	48	0	
1	49	0	
1	50	0	
2	0	0	
2	1	0	
2	2	0	
2	3	0	
2	4	0	
2	5	0	
2	6	0	
2	7	0	
2	8	0	
2	9	0	
2	10	0	
2	11	0	
2	12	0	
2	13	0	
2	14	0	
2	15	0	
2	16	0	
2	17	0	
2	18	0	
2	19	0	
2	20	0	
2	21	0	
2	22	0	
2	23	0	
2	24	0	
2	25	0	
2	26	0	
2	27	0	
2	28	0	
2	29	0	
2	30	0	
2	31	0	
2	32	0	
2	33	0	
2	34	0	
2	35	0	
2	36	0	
2	37	0	
2	38	0	
2	39	0	
2	40	0	
2	41	0	
2	42	0	
2	43	0	
2	44	0	
2	45	0	
2	46	0	
2	47	0	
2	48	0	
2	49	0	
2	50	0	
3	0	0	
3	1	0	
3	2	0	
3	3	0	
3	4	0	
3	5	0	
3	6	0	
3	7	0	
3	8	0	
3	9	0	
3	10	0	
3	11	0	
3	12	0	
3	13	0	
3	14	0	
3	15	0	
3	16	0	
3	17	0	
3	18	0	
3	19	0	
3	20	0	
3	21	0	
3	22	0	
3	23	0	
3	24	0	
3	25	0	
3	26	0	
3	27	0	
3	28	0	
3	29	0	
3	30	0	
3	31	0	
3	32	0	
3	33	0	
3	34	0	
3	35	0	
3	36	0	
3	37	0	
3	38	0	
3	39	0	
3	40	0	
3	41	0	
3	42	0	
3	43	0	
3	44	0	
3	45	0	
3	46	0	
3	47	0	
3	48	0	
3	49	0	
3	50	0	
4	0	0	
4	1	0	
4	2	0	
4	3	0	
4	4	0	
4	5	0	
4	6	0	
4	7	0	
4	8	0	
4	9	0	
4	10	0	
4	11	0	
4	12	0	
4	13	0	
4	14	0	
4	15	0	
4	16	0	
4	17	0	
4	18	0	
4	19	0	
4	20	0	
4	21	0	
4	22	0	
4	23	0	
4	24	0	
4	25	0	
4	26	0	
4	27	0	
4	28	0	
4	29	0	
4	30	0	
4	31	0	
4	32	0	
4	33	0	
4	34	0	
4	35	0	
4	36	0	
4	37	0	
4	38	0	
4	39	0	
4	40	0	
4	41	0	
4	42	0	
4	43	0	
4	44	0	
4	45	0	
4	46	0	
4	47	0	
4	48	0	
4	49	0	
4	50	0	
5	0	0	
5	1	0	
5	2	0	
5	3	0	
5	4	0	
5	5	0	
5	6	0	
5	7	0	
5	8	0	
5	9	0	
5	10	0	
5	11	0	
5	12	0	
5	13	0	
5	14	0	
5	15	0	
5	16	0	
5	17	0	
5	18	0	
5	19	0	
5	20	0	
5	21	0	
5	22	0	
5	23	0	
5	24	0	
5	25	0	
5	26	0	
5	27	0	
5	28	0	
5	29	0	
5	30	0	
5	31	0	
5	32	0	
5	33	0	
5	34	0	
5	35	0	
5	36	0	
5	37	0	
5	38	0	
5	39	0	
5	40	0	
5	41	0	
5	42	0	
5	43	0	
5	44	0	
5	45	0	
5	46	0	
5	47	0	
5	48	0	
5	49	0	
5	50	0	
6	0	0	
6	1	0	
6	2	0	
6	3	0	
6	4	0	
6	5	0	
6	6	0	
6	7	0	
6	8	0	
6	9	0	
6	10	0	
6	11	0	
6	12	0	
6	13	0	
6	14	0	
6	15	0	
6	16	0	
6	17	0	
6	18	0	
6	19	0	
6	20	0	
6	21	0	
6	22	0	
6	23	0	
6	24	0	
6	25	0	
6	26	0	
6	27	0	
6	28	0	
6	29	0	
6	30	0	
6	31	0	
6	32	0	
6	33	0	
6	34	0	
6	35	0	
6	36	0	
6	37	0	
6	38	0	
6	39	0	
6	40	0	
6	41	0	
6	42	0	
6	43	0	
6	44	0	
6	45	0	
6	46	0	
6	47	0	
6	48	0	
6	49	0	
6	50	0	
7	0	0	
7	1	0	
7	2	0	
7	3	0	
7	4	0	
7	5	0	
7	6	0	
7	7	0	
7	8	0	
7	9	0	
7	10	0	
7	11	0	
7	12	0	
7	13	0	
7	14	0	
7	15	0	
7	16	0	
7	17	0	
7	18	0	
7	19	0	
7	20	0	
7	21	0	
7	22	0	
7	23	0	
7	24	0	
7	25	0	
7	26	0	
7	27	0	
7	28	0	
7	29	0	
7	30	0	
7	31	0	
7	32	0	
7	33	0	
7	34	0	
7	35	0	
7	36	0	
7	37	0	
7	38	0	
7	39	0	
7	40	0	
7	41	0	
7	42	0	
7	43	0	
7	44	0	
7	45	0	
7	46	0	
7	47	0	
7	48	0	
7	49	0	
7	50	0	
8	0	0	
8	1	0	
8	2	0	
8	3	0	
8	4	0	
8	5	0	
8	6	0	
8	7	0	
8	8	0	
8	9	0	
8	10	0	
8	11	0	
8	12	0	
8	13	0	
8	14	0	
8	15	0	
8	16	0	
8	17	0	
8	18	0	
8	19	0	
8	20	0	
8	21	0	
8	22	0	
8	23	0	
8	24	0	
8	25	0	
8	26	0	
8	27	0	
8	28	0	
8	29	0	
8	30	0	
8	31	0	
8	32	0	
8	33	0	
8	34	0	
8	35	0	
8	36	0	
8	37	0	
8	38	0	
8	39	0	
8	40	0	
8	41	0	
8	42	0	
8	43	0	
8	44	0	
8	45	0	
8	46	0	
8	47	0	
8	48	0	
8	49	0	
8	50	0	
9	0	0	
9	1	0	
9	2	0	
9	3	0	
9	4	0	
9	5	0	
9	6	0	
9	7	0	
9	8	0	
9	9	0	
9	10	0	
9	11	0	
9	12	0	
9	13	0	
9	14	0	
9	15	0	
9	16	0	
9	17	0	
9	18	0	
9	19	0	
9	20	0	
9	21	0	
9	22	0	
9	23	0	
9	24	0	
9	25	0	
9	26	0	
9	27	0	
9	28	0	
9	29	0	
9	30	0	
9	31	0	
9	32	0	
9	33	0	
9	34	0	
9	35	0	
9	36	0	
9	37	0	
9	38	0	
9	39	0	
9	40	0	
9	41	0	
9	42	0	
9	43	0	
9	44	0	
9	45	0	
9	46	0	
9	47	0	
9	48	0	
9	49	0	
9	50	0	
10	0	0	
10	1	0	
10	2	0	
10	3	0	
10	4	0	
10	5	0	
10	6	0	
10	7	0	
10	8	0	
10	9	0	
10	10	0	
10	11	0	
10	12	0	
10	13	0	
10	14	0	
10	15	0	
10	16	0	
10	17	0	
10	18	0	
10	19	0	
10	20	0	
10	21	0	
10	22	0	
10	23	0	
10	24	0	
10	25	0	
10	26	0	
10	27	0	
10	28	0	
10	29	0	
10	30	0	
10	31	0	
10	32	0	
10	33	0	
10	34	0	
10	35	0	
10	36	0	
10	37	0	
10	38	0	
10	39	0	
10	40	0	
10	41	0	
10	42	0	
10	43	0	
10	44	0	
10	45	0	
10	46	0	
10	47	0	
10	48	0	
10	49	0	
10	50	0	
11	0	0	
11	1	0	
11	2	0	
11	3	0	
11	4	0	
11	5	0	
11	6	0	
11	7	0	
11	8	0	
11	9	0	
11	10	0	
11	11	0	
11	12	0	
11	13	0	
11	14	0	
11	15	0	
11	16	0	
11	17	0	
11	18	0	
11	19	0	
11	20	0	
11	21	0	
11	22	0	
11	23	0	
11	24	0	
11	25	0	
11	26	0	
11	27	0	
11	28	0	
11	29	0	
11	30	0	
11	31	0	
11	32	0	
11	33	0	
11	34	0	
11	35	0	
11	36	0	
11	37	0	
11	38	0	
11	39	0	
11	40	0	
11	41	0	
11	42	0	
11	43	0	
11	44	0	
11	45	0	
11	46	0	
11	47	0	
11	48	0	
11	49	0	
11	50	0	
12	0	0	
12	1	0	
12	2	0	
12	3	0	
12	4	0	
12	5	0	
12	6	0	
12	7	0	
12	8	0	
12	9	0	
12	10	0	
12	11	0	
12	12	0	
12	13	0	
12	14	0	
12	15	0	
12	16	0	
12	17	0	
12	18	0	
12	19	0	
12	20	0	
12	21	0	
12	22	0	
12	23	0	
12	24	0	
12	25	0	
12	26	0	
12	27	0	
12	28	0	
12	29	0	
12	30	0	
12	31	0	
12	32	0	
12	33	0	
12	34	0	
12	35	0	
12	36	0	
12	37	0	
12	38	0	
12	39	0	
12	40	0	
12	41	0	
12	42	0	
12	43	0	
12	44	0	
12	45	0	
12	46	0	
12	47	0	
12	48	0	
12	49	0	
12	50	0	
13	0	0	
13	1	0	
13	2	0	
13	3	0	
13	4	0	
13	5	0	
13	6	0	
13	7	0	
13	8	0	
13	9	0	
13	10	0	
13	11	0	
13	12	0	
13	13	0	
13	14	0	
13	15	0	
13	16	0	
13	17	0	
13	18	0	
13	19	0	
13	20	0	
13	21	0	
13	22	0	
13	23	0	
13	24	0	
13	25	0	
13	26	0	
13	27	0	
13	28	0	
13	29	0	
13	30	0	
13	31	0	
13	32	0	
13	33	0	
13	34	0	
13	35	0	
13	36	0	
13	37	0	
13	38	0	
13	39	0	
13	40	0	
13	41	0	
13	42	0	
13	43	0	
13	44	0	
13	45	0	
13	46	0	
13	47	0	
13	48	0	
13	49	0	
13	50	0	
14	0	0	
14	1	0	
14	2	0	
14	3	0	
14	4	0	
14	5	0	
14	6	0	
14	7	0	
14	8	0	
14	9	0	
14	10	0	
14	11	0	
14	12	0	
14	13	0	
14	14	0	
14	15	0	
14	16	0	
14	17	0	
14	18	0	
14	19	0	
14	20	0	
14	21	0	
14	22	0	
14	23	0	
14	24	0	
14	25	0	
14	26	0	
14	27	0	
14	28	0	
14	29	0	
14	30	0	
14	31	0	
14	32	0	
14	33	0	
14	34	0	
14	35	0	
14	36	0	
14	37	0	
14	38	0	
14	39	0	
14	40	0	
14	41	0	
14	42	0	
14	43	0	
14	44	0	
14	45	0	
14	46	0	
14	47	0	
14	48	0	
14	49	0	
14	50	0	
15	0	0	
15	1	0	
15	2	0	
15	3	0	
15	4	0	
15	5	0	
15	6	0	
15	7	0	
15	8	0	
15	9	0	
15	10	0	
15	11	0	
15	12	0	
15	13	0	
15	14	0	
15	15	0	
15	16	0	
15	17	0	
15	18	0	
15	19	0	
15	20	0	
15	21	0	
15	22	0	
15	23	0	
15	24	0	
15	25	0	
15	26	0	
15	27	0	
15	28	0	
15	29	0	
15	30	0	
15	31	0	
15	32	0	
15	33	0	
15	34	0	
15	35	0	
15	36	0	
15	37	0	
15	38	0	
15	39	0	
15	40	0	
15	41	0	
15	42	0	
15	43	0	
15	44	0	
15	45	0	
15	46	0	
15	47	0	
15	48	0	
15	49	0	
15	50	0	
16	0	0	
16	1	0	
16	2	0	
16	3	0	
16	4	0	
16	5	0	
16	6	0	
16	7	0	
16	8	0	
16	9	0	
16	10	0	
16	11	0	
16	12	0	
16	13	0	
16	14	0	
16	15	0	
16	16	0	
16	17	0	
16	18	0	
16	19	0	
16	20	0	
16	21	0	
16	22	0	
16	23	0	
16	24	0	
16	25	0	
16	26	0	
16	27	0	
16	28	0	
16	29	0	
16	30	0	
16	31	0	
16	32	0	
16	33	0	
16	34	0	
16	35	0	
16	36	0	
16	37	0	
16	38	0	
16	39	0	
16	40	0	
16	41	0	
16	42	0	
16	43	0	
16	44	0	
16	45	0	
16	46	0	
16	47	0	
16	48	0	
16	49	0	
16	50	0	
17	0	0	
17	1	0	
17	2	0	
17	3	0	
17	4	0	
17	5	0	
17	6	0	
17	7	0	
17	8	0	
17	9	0	
17	10	0	
17	11	0	
17	12	0	
17	13	0	
17	14	0	
17	15	0	
17	16	0	
17	17	0	
17	18	0	
17	19	0	
17	20	0	
17	21	0	
17	22	0	
17	23	0	
17	24	0	
17	25	0	
17	26	0	
17	27	0	
17	28	0	
17	29	0	
17	30	0	
17	31	0	
17	32	0	
17	33	0	
17	34	0	
17	35	0	
17	36	0	
17	37	0	
17	38	0	
17	39	0	
17	40	0	
17	41	0	
17	42	0	
17	43	0	
17	44	0	
17	45	0	
17	46	0	
17	47	0	
17	48	0	
17	49	0	
17	50	0	
18	0	0	
18	1	0	
18	2	0	
18	3	0	
18	4	0	
18	5	0	
18	6	0	
18	7	0	
18	8	0	
18	9	0	
18	10	0	
18	11	0	
18	12	0	
18	13	0	
18	14	0	
18	15	0	
18	16	0	
18	17	0	
18	18	0	
18	19	0	
18	20	0	
18	21	0	
18	22	0	
18	23	0	
18	24	0	
18	25	0	
18	26	0	
18	27	0	
18	28	0	
18	29	0	
18	30	0	
18	31	0	
18	32	0	
18	33	0	
18	34	0	
18	35	0	
18	36	0	
18	37	0	
18	38	0	
18	39	0	
18	40	0	
18	41	0	
18	42	0	
18	43	0	
18	44	0	
18	45	0	
18	46	0	
18	47	0	
18	48	0	
18	49	0	
18	50	0	
19	0	0	
19	1	0	
19	2	0	
19	3	0	
19	4	0	
19	5	0	
19	6	0	
19	7	0	
19	8	0	
19	9	0	
19	10	0	
19	11	0	
19	12	0	
19	13	0	
19	14	0	
19	15	0	
19	16	0	
19	17	0	
19	18	0	
19	19	0	
19	20	0	
19	21	0	
19	22	0	
19	23	0	
19	24	0	
19	25	0	
19	26	0	
19	27	0	
19	28	0	
19	29	0	
19	30	0	
19	31	0	
19	32	0	
19	33	0	
19	34	0	
19	35	0	
19	36	0	
19	37	0	
19	38	0	
19	39	0	
19	40	0	
19	41	0	
19	42	0	
19	43	0	
19	44	0	
19	45	0	
19	46	0	
19	47	0	
19	48	0	
19	49	0	
19	50	0	
20	0	0	
20	1	0	
20	2	0	
20	3	0	
20	4	0	
20	5	0	
20	6	0	
20	7	0	
20	8	0	
20	9	0	
20	10	0	
20	11	0	
20	12	0	
20	13	0	
20	14	0	
20	15	0	
20	16	0	
20	17	0	
20	18	0	
20	19	0	
20	20	0	
20	21	0	
20	22	0	
20	23	0	
20	24	0	
20	25	0	
20	26	0	
20	27	0	
20	28	0	
20	29	0	
20	30	0	
20	31	0	
20	32	0	
20	33	0	
20	34	0	
20	35	0	
20	36	0	
20	37	0	
20	38	0	
20	39	0	
20	40	0	
20	41	0	
20	42	0	
20	43	0	
20	44	0	
20	45	0	
20	46	0	
20	47	0	
20	48	0	
20	49	0	
20	50	0	
21	0	0	
21	1	0	
21	2	0	
21	3	0	
21	4	0	
21	5	0	
21	6	0	
21	7	0	
21	8	0	
21	9	0	
21	10	0	
21	11	0	
21	12	0	
21	13	0	
21	14	0	
21	15	0	
21	16	0	
21	17	0	
21	18	0	
21	19	0	
21	20	0	
21	21	0	
21	22	0	
21	23	0	
21	24	0	
21	25	0	
21	26	0	
21	27	0	
21	28	0	
21	29	0	
21	30	0	
21	31	0	
21	32	0	
21	33	0	
21	34	0	
21	35	0	
21	36	0	
21	37	0	
21	38	0	
21	39	0	
21	40	0	
21	41	0	
21	42	0	
21	43	0	
21	44	0	
21	45	0	
21	46	0	
21	47	0	
21	48	0	
21	49	0	
21	50	0	
22	0	0	
22	1	0	
22	2	0	
22	3	0	
22	4	0	
22	5	0	
22	6	0	
22	7	0	
22	8	0	
22	9	0	
22	10	0	
22	11	0	
22	12	0	
22	13	0	
22	14	0	
22	15	0	
22	16	0	
22	17	0	
22	18	0	
22	19	0	
22	20	0	
22	21	0	
22	22	0	
22	23	0	
22	24	0	
22	25	0	
22	26	0	
22	27	0	
22	28	0	
22	29	0	
22	30	0	
22	31	0	
22	32	0	
22	33	0	
22	34	0	
22	35	0	
22	36	0	
22	37	0	
22	38	0	
22	39	0	
22	40	0	
22	41	0	
22	42	0	
22	43	0	
22	44	0	
22	45	0	
22	46	0	
22	47	0	
22	48	0	
22	49	0	
22	50	0	
23	0	0	
23	1	0	
23	2	0	
23	3	0	
23	4	0	
23	5	0	
23	6	0	
23	7	0	
23	8	0	
23	9	0	
23	10	0	
[...]
POINT_DATA	7701
VECTORS d float
3.50645e-016	-0.00155407	0	
3.38954e-016	-0.000408937	0	
3.09917e-016	-0.00155184	0	
2.87347e-016	-0.000415511	0	
2.59661e-016	-0.00154927	0	
2.48298e-016	-0.000421778	0	
4.0864e-016	-0.00154918	0	
6.77121e-016	-0.000428162	0	
7.49512e-016	-0.00155769	0	
3.44559e-016	-0.000437261	0	
2.00526e-016	-0.00156161	0	
2.80278e-016	-0.00044337	0	
1.05356e-016	-0.00156241	0	
2.44217e-016	-0.000448623	0	
1.10783e-016	-0.00156495	0	
2.38789e-016	-0.000454748	0	
1.19435e-016	-0.00156853	0	
2.36738e-016	-0.000461584	0	
1.27409e-016	-0.00157285	0	
2.3341e-016	-0.000469061	0	
1.33975e-016	-0.00157778	0	
2.27135e-016	-0.000477162	0	
1.38377e-016	-0.00158323	0	
2.16805e-016	-0.00048589	0	
1.39533e-016	-0.00158916	0	
2.01318e-016	-0.000495247	0	
1.35925e-016	-0.00159554	0	
1.79231e-016	-0.000505231	0	
1.25396e-016	-0.00160232	0	
1.48163e-016	-0.000515817	0	
1.04978e-016	-0.00160948	0	
1.03951e-016	-0.000526942	0	
7.24661e-017	-0.00161693	0	
4.47339e-017	-0.00053849	0	
3.22668e-017	-0.00162454	0	
-3.10141e-017	-0.000550327	0	
2.20374e-016	-0.00163212	0	
1.92832e-016	-0.000557444	0	
2.00586e-016	-0.00163251	0	
1.4319e-017	-0.000563388	0	
9.57189e-017	-0.0016326	0	
-1.59827e-017	-0.000567654	0	
1.17657e-018	-0.00163118	0	
-1.04344e-016	-0.000569158	0	
-5.50325e-017	-0.00163188	0	
-1.44851e-016	-0.000571739	0	
-1.74246e-016	-0.00163321	0	
-3.00202e-016	-0.000572328	0	
-3.30249e-016	-0.00163618	0	
-4.35999e-016	-0.000571908	0	
-1.15847e-015	-0.00165352	0	
5.13715e-006	-0.000405396	0	
3.90837e-007	-0.00155289	0	
4.7263e-006	-0.000412175	0	
-3.64446e-008	-0.00155051	0	
4.32812e-006	-0.000418569	0	
-4.19178e-007	-0.00154774	0	
9.34343e-006	-0.000420691	0	
-8.32246e-007	-0.0015541	0	
1.72686e-005	-0.000440769	0	
-3.90236e-007	-0.00156141	0	
5.20457e-006	-0.000439999	0	
-8.08049e-007	-0.00156123	0	
4.40051e-006	-0.000445423	0	
-2.61296e-007	-0.00156326	0	
4.32943e-006	-0.000451314	0	
1.17218e-007	-0.00156645	0	
4.35461e-006	-0.000457868	0	
4.13481e-007	-0.00157044	0	
4.38926e-006	-0.000465048	0	
6.68663e-007	-0.00157509	0	
4.41144e-006	-0.000472839	0	
8.97221e-007	-0.00158029	0	
4.41019e-006	-0.000481244	0	
1.10169e-006	-0.00158598	0	
4.37644e-006	-0.000490271	0	
1.2782e-006	-0.00159212	0	
4.30018e-006	-0.000499923	0	
1.41731e-006	-0.00159868	0	
4.16642e-006	-0.000510188	0	
1.5019e-006	-0.00160564	0	
3.94603e-006	-0.000521029	0	
1.50646e-006	-0.00161294	0	
3.58116e-006	-0.000532359	0	
1.43332e-006	-0.00162047	0	
3.06019e-006	-0.000544048	0	
1.40919e-006	-0.00162818	0	
2.22571e-006	-0.000555981	0	
1.31465e-006	-0.00163238	0	
1.65247e-006	-0.000558867	0	
1.1379e-006	-0.00163156	0	
-2.40795e-007	-0.000563512	0	
3.86599e-007	-0.00163049	0	
-3.12248e-007	-0.000567369	0	
2.92732e-007	-0.00163071	0	
-2.47328e-007	-0.000570539	0	
-9.01291e-008	-0.00163213	0	
-1.86273e-006	-0.000571428	0	
-5.80912e-007	-0.00163335	0	
-3.50473e-006	-0.000570817	0	
5.06288e-007	-0.00163818	0	
-8.2116e-006	-0.00056297	0	
1.21318e-006	-0.00155363	0	
9.86133e-006	-0.000408538	0	
3.62902e-007	-0.00155143	0	
9.03782e-006	-0.000415119	0	
-4.71377e-007	-0.00154889	0	
8.27362e-006	-0.000421352	0	
9.24936e-007	-0.00154813	0	
1.46125e-005	-0.000425905	0	
4.10851e-006	-0.00155424	0	
1.20056e-005	-0.000434357	0	
-1.17827e-006	-0.00155891	0	
9.11154e-006	-0.000441045	0	
-7.29928e-007	-0.0015611	0	
8.69302e-006	-0.00044734	0	
-1.87905e-008	-0.00156411	0	
8.68444e-006	-0.000453824	0	
5.80885e-007	-0.00156785	0	
8.74669e-006	-0.000460783	0	
1.1031e-006	-0.00157223	0	
8.80311e-006	-0.000468289	0	
1.57387e-006	-0.00157717	0	
8.8239e-006	-0.000476372	0	
2.00034e-006	-0.0015826	0	
8.7891e-006	-0.000485052	0	
2.37774e-006	-0.00158849	0	
8.68008e-006	-0.00049434	0	
2.69222e-006	-0.00159479	0	
8.47403e-006	-0.000504233	0	
2.91854e-006	-0.00160148	0	
8.13363e-006	-0.000514714	0	
3.01418e-006	-0.00160855	0	
7.58529e-006	-0.000525733	0	
2.92736e-006	-0.00161596	0	
6.70432e-006	-0.000537194	0	
2.73484e-006	-0.00162357	0	
5.61749e-006	-0.00054896	0	
2.87133e-006	-0.00163176	0	
3.97492e-006	-0.000556771	0	
9.81198e-007	-0.0016314	0	
1.99165e-006	-0.000560035	0	
-3.74128e-007	-0.00162999	0	
7.71559e-007	-0.000564372	0	
-8.03179e-008	-0.00162942	0	
5.54867e-007	-0.000568383	0	
4.92407e-007	-0.0016307	0	
-2.21288e-006	-0.000569524	0	
-1.45103e-006	-0.00163073	0	
-5.0955e-006	-0.000568809	0	
-2.38223e-006	-0.00163153	0	
-8.85752e-006	-0.000563893	0	
-9.32045e-006	-0.00162987	0	
1.5401e-005	-0.000404602	0	
1.19719e-006	-0.00155203	0	
1.41592e-005	-0.000411365	0	
-6.39343e-008	-0.00154969	0	
1.2935e-005	-0.000417771	0	
-1.25278e-006	-0.00154703	0	
1.44871e-005	-0.000424153	0	
2.94787e-006	-0.00155086	0	
1.73754e-005	-0.000428542	0	
1.59418e-006	-0.0015537	0	
1.42621e-005	-0.000435278	0	
-7.21969e-007	-0.00155811	0	
1.32017e-005	-0.00044258	0	
-2.19373e-007	-0.00156137	0	
1.30275e-005	-0.000449344	0	
5.65155e-007	-0.00156501	0	
1.30779e-005	-0.000456232	0	
1.32371e-006	-0.00156919	0	
1.31641e-005	-0.000463516	0	
2.03072e-006	-0.00157388	0	
1.32196e-005	-0.000471301	0	
2.68394e-006	-0.00157906	0	
1.32074e-005	-0.000479636	0	
3.27469e-006	-0.00158468	0	
1.30984e-005	-0.000488545	0	
3.78547e-006	-0.00159071	0	
1.28629e-005	-0.000498036	0	
4.18755e-006	-0.00159711	0	
1.24625e-005	-0.000508102	0	
4.43376e-006	-0.00160387	0	
1.18318e-005	-0.000518718	0	
4.44871e-006	-0.00161099	0	
1.08493e-005	-0.000529836	0	
4.14963e-006	-0.0016185	0	
9.3194e-006	-0.000541353	0	
3.83432e-006	-0.00162612	0	
8.19603e-006	-0.000553158	0	
2.06861e-006	-0.00162999	0	
4.59686e-006	-0.000556541	0	
-9.01049e-007	-0.00162902	0	
2.40512e-006	-0.000560611	0	
-1.19941e-006	-0.0016285	0	
1.84804e-006	-0.000565336	0	
1.30947e-006	-0.00162932	0	
-1.16117e-006	-0.00056706	0	
-1.79259e-006	-0.00162824	0	
-5.42378e-006	-0.000566369	0	
-4.53976e-006	-0.00162734	0	
-9.34727e-006	-0.000563622	0	
-9.75393e-006	-0.00162566	0	
-1.43463e-005	-0.000560721	0	
2.47242e-006	-0.00155232	0	
1.96869e-005	-0.000407311	0	
7.75402e-007	-0.00155016	0	
1.80359e-005	-0.000413874	0	
-8.63692e-007	-0.00154768	0	
1.64039e-005	-0.000420091	0	
3.79132e-007	-0.00154793	0	
1.95563e-005	-0.000425476	0	
2.04304e-006	-0.00155084	0	
1.96201e-005	-0.000430476	0	
6.26718e-007	-0.00155409	0	
1.79301e-005	-0.00043723	0	
-1.13157e-007	-0.00155813	0	
1.74432e-005	-0.00044439	0	
5.0676e-007	-0.00156188	0	
1.74049e-005	-0.000451366	0	
1.38713e-006	-0.00156595	0	
1.74945e-005	-0.000458518	0	
2.28918e-006	-0.00157044	0	
1.7584e-005	-0.000466049	0	
3.15562e-006	-0.00157538	0	
1.7609e-005	-0.000474057	0	
3.95968e-006	-0.00158075	0	
1.75245e-005	-0.00048259	0	
4.6754e-006	-0.00158649	0	
1.72915e-005	-0.000491668	0	
5.26991e-006	-0.00159259	0	
1.68684e-005	-0.000501292	0	
5.69598e-006	-0.001599	0	
1.61998e-005	-0.000511445	0	
5.87882e-006	-0.00160574	0	
1.51945e-005	-0.0005221	0	
5.69763e-006	-0.00161285	0	
1.36958e-005	-0.000533223	0	
4.98551e-006	-0.00162046	0	
1.14025e-005	-0.000544719	0	
4.64875e-006	-0.00162749	0	
8.38232e-006	-0.000551998	0	
7.71834e-008	-0.00162681	0	
4.27104e-006	-0.000555354	0	
-3.55839e-006	-0.00162491	0	
3.14126e-006	-0.000558822	0	
-2.37388e-007	-0.00162673	0	
1.09563e-007	-0.000562783	0	
-1.06295e-006	-0.00162544	0	
-4.6696e-006	-0.000563247	0	
-5.7478e-006	-0.00162381	0	
-9.12842e-006	-0.000561859	0	
-1.07417e-005	-0.00162181	0	
-1.41311e-005	-0.0005596	0	
-1.85277e-005	-0.00161804	0	
2.56244e-005	-0.000402964	0	
2.04573e-006	-0.00155029	0	
2.35436e-005	-0.000409682	0	
-3.06712e-008	-0.001548	0	
2.14907e-005	-0.000416049	0	
-2.06742e-006	-0.00154538	0	
2.19491e-005	-0.000421807	0	
7.60028e-007	-0.00154813	0	
2.33207e-005	-0.000426801	0	
1.18534e-006	-0.00155097	0	
2.27896e-005	-0.000432438	0	
5.13689e-007	-0.0015545	0	
2.1964e-005	-0.00043919	0	
5.87622e-007	-0.00155845	0	
2.17566e-005	-0.000446222	0	
1.38469e-006	-0.00156249	0	
2.18036e-005	-0.000453305	0	
2.39255e-006	-0.00156684	0	
2.19118e-005	-0.000460632	0	
3.43373e-006	-0.00157157	0	
2.19781e-005	-0.000468343	0	
4.43645e-006	-0.0015767	0	
2.19354e-005	-0.000476516	0	
5.35507e-006	-0.00158218	0	
2.17303e-005	-0.000485187	0	
6.14722e-006	-0.00158798	0	
2.13133e-005	-0.000494363	0	
6.76344e-006	-0.00159406	0	
2.06312e-005	-0.000504033	0	
7.13483e-006	-0.00160039	0	
1.96129e-005	-0.000514167	0	
7.15166e-006	-0.00160699	0	
1.81494e-005	-0.000524731	0	
6.61672e-006	-0.00161395	0	
1.60707e-005	-0.000535704	0	
5.03671e-006	-0.00162161	0	
1.26638e-005	-0.000547134	0	
2.17429e-006	-0.00162369	0	
8.36874e-006	-0.000550091	0	
-3.44432e-006	-0.00162237	0	
3.46406e-006	-0.000553507	0	
-2.06583e-006	-0.00162332	0	
2.10409e-006	-0.000557675	0	
-6.15586e-007	-0.00162257	0	
-2.56797e-006	-0.000559139	0	
-6.16364e-006	-0.0016202	0	
-8.0067e-006	-0.000558867	0	
-1.15607e-005	-0.00161812	0	
-1.33239e-005	-0.00055764	0	
-1.86632e-005	-0.00161483	0	
-1.94764e-005	-0.000556498	0	
3.76346e-006	-0.00155011	0	
2.94482e-005	-0.000405209	0	
1.22745e-006	-0.00154798	0	
2.69855e-005	-0.000411716	0	
-1.22497e-006	-0.00154555	0	
2.44983e-005	-0.000417881	0	
-1.01616e-006	-0.00154551	0	
2.6478e-005	-0.000423059	0	
6.24172e-007	-0.00154813	0	
2.69403e-005	-0.000428264	0	
8.43437e-007	-0.0015512	0	
2.65049e-005	-0.000434266	0	
8.42722e-007	-0.00155486	0	
2.61383e-005	-0.000440972	0	
1.40392e-006	-0.00155886	0	
2.61011e-005	-0.000447934	0	
2.39758e-006	-0.00156309	0	
2.62021e-005	-0.00045508	0	
3.54922e-006	-0.00156765	0	
2.63043e-005	-0.000462524	0	
4.71966e-006	-0.00157255	0	
2.63134e-005	-0.000470359	0	
5.8288e-006	-0.00157778	0	
2.61569e-005	-0.000478637	0	
6.81601e-006	-0.00158331	0	
2.57722e-005	-0.000487376	0	
7.62364e-006	-0.00158907	0	
2.51e-005	-0.000496567	0	
8.1845e-006	-0.00159503	0	
2.40751e-005	-0.000506178	0	
8.40357e-006	-0.00160115	0	
2.26094e-005	-0.000516154	0	
8.12217e-006	-0.00160744	0	
2.05627e-005	-0.000526417	0	
7.0009e-006	-0.00161394	0	
1.76538e-005	-0.000536837	0	
3.30367e-006	-0.00162124	0	
1.26553e-005	-0.000544749	0	
-2.02831e-007	-0.00161896	0	
6.32778e-006	-0.000546812	0	
-2.61737e-006	-0.00161856	0	
4.00768e-006	-0.000550052	0	
-3.5758e-006	-0.00161836	0	
1.11772e-006	-0.000554183	0	
-6.36604e-006	-0.00161664	0	
-5.79954e-006	-0.000554742	0	
-1.19322e-005	-0.0016144	0	
-1.17515e-005	-0.000554663	0	
-1.88673e-005	-0.00161142	0	
-1.80793e-005	-0.000554003	0	
-2.75531e-005	-0.00160696	0	
3.576e-005	-0.000400464	0	
2.91068e-006	-0.00154766	0	
3.28631e-005	-0.00040711	0	
3.5227e-008	-0.00154539	0	
3.0009e-005	-0.000413417	0	
-2.82731e-006	-0.00154283	0	
2.94843e-005	-0.000419077	0	
-5.67212e-007	-0.00154534	0	
3.05822e-005	-0.000424204	0	
5.29648e-007	-0.0015481	0	
3.0716e-005	-0.000429702	0	
9.38288e-007	-0.00155137	0	
3.04857e-005	-0.00043587	0	
1.441e-006	-0.00155514	0	
3.03795e-005	-0.000442525	0	
2.34805e-006	-0.00155923	0	
3.0453e-005	-0.00044945	0	
3.53724e-006	-0.00156362	0	
3.05793e-005	-0.000456633	0	
4.83104e-006	-0.00156832	0	
3.06434e-005	-0.000464148	0	
6.10851e-006	-0.00157332	0	
3.05517e-005	-0.000472054	0	
7.28216e-006	-0.0015786	0	
3.02243e-005	-0.000480375	0	
8.27866e-006	-0.00158409	0	
2.95893e-005	-0.000489107	0	
9.02557e-006	-0.00158972	0	
2.85768e-005	-0.000498218	0	
9.43513e-006	-0.00159544	0	
2.71058e-005	-0.000507644	0	
9.37651e-006	-0.00160118	0	
2.50478e-005	-0.000517273	0	
8.61215e-006	-0.00160687	0	
2.20942e-005	-0.000526858	0	
6.55543e-006	-0.0016123	0	
1.65586e-005	-0.000535053	0	
2.1518e-006	-0.00161587	0	
1.10379e-005	-0.000541424	0	
-2.18321e-006	-0.00161459	0	
8.35382e-006	-0.000540573	0	
-2.21228e-006	-0.00161438	0	
5.29213e-007	-0.000545726	0	
-5.58673e-006	-0.00161247	0	
-2.84768e-006	-0.000549526	0	
-1.18389e-005	-0.00161069	0	
-9.29588e-006	-0.00055071	0	
-1.88524e-005	-0.00160788	0	
-1.60568e-005	-0.000550836	0	
-2.72736e-005	-0.0016039	0	
-2.34046e-005	-0.000550762	0	
5.03446e-006	-0.00154703	0	
3.91159e-005	-0.000402248	0	
1.69776e-006	-0.00154492	0	
3.58849e-005	-0.000408681	0	
-1.52786e-006	-0.00154255	0	
3.2601e-005	-0.000414805	0	
-2.01062e-006	-0.00154247	0	
3.39694e-005	-0.000420016	0	
-3.04648e-007	-0.00154506	0	
3.45778e-005	-0.000425281	0	
6.52496e-007	-0.00154802	0	
3.46455e-005	-0.000430988	0	
1.34956e-006	-0.00155146	0	
3.45954e-005	-0.000437213	0	
2.23676e-006	-0.00155532	0	
3.46518e-005	-0.000443822	0	
3.42142e-006	-0.00155952	0	
3.47935e-005	-0.00045072	0	
4.79274e-006	-0.00156402	0	
3.49116e-005	-0.000457921	0	
6.20969e-006	-0.00156881	0	
3.48963e-005	-0.000465469	0	
7.55634e-006	-0.00157386	0	
3.46492e-005	-0.000473392	0	
8.73747e-006	-0.0015791	0	
3.40817e-005	-0.00048169	0	
9.66821e-006	-0.00158447	0	
3.31122e-005	-0.000490332	0	
1.02602e-005	-0.00158986	0	
3.16574e-005	-0.000499258	0	
1.0398e-005	-0.00159519	0	
2.96049e-005	-0.000508356	0	
9.89294e-006	-0.00160036	0	
2.67109e-005	-0.000517405	0	
8.36052e-006	-0.00160519	0	
2.21e-005	-0.000525784	0	
4.76703e-006	-0.00160967	0	
1.51448e-005	-0.000534799	0	
1.06397e-006	-0.00161141	0	
9.9664e-006	-0.000538015	0	
-3.16559e-006	-0.0016114	0	
5.28846e-006	-0.000539876	0	
-6.07516e-006	-0.00160998	0	
1.64653e-007	-0.000544082	0	
-1.11178e-005	-0.00160695	0	
-6.08797e-006	-0.000545939	0	
-1.8453e-005	-0.0016043	0	
-1.3282e-005	-0.000546944	0	
-2.68911e-005	-0.00160063	0	
-2.09688e-005	-0.000547282	0	
-3.64887e-005	-0.00159573	0	
4.57513e-005	-0.000397148	0	
3.76201e-006	-0.00154416	0	
4.21033e-005	-0.0004037	0	
1.4744e-007	-0.00154194	0	
3.85153e-005	-0.000409945	0	
-3.46605e-006	-0.00153946	0	
3.73139e-005	-0.000415598	0	
-1.43943e-006	-0.00154196	0	
3.8206e-005	-0.000420819	0	
-1.15543e-008	-0.00154471	0	
3.85734e-005	-0.000426236	0	
1.00669e-006	-0.00154786	0	
3.86754e-005	-0.000432053	0	
1.99659e-006	-0.00155143	0	
3.87682e-005	-0.00043828	0	
3.19758e-006	-0.00155539	0	
3.89314e-005	-0.000444844	0	
4.61844e-006	-0.00155969	0	
3.91026e-005	-0.000451717	0	
6.14656e-006	-0.00156427	0	
3.91715e-005	-0.000458914	0	
7.65011e-006	-0.00156911	0	
3.90245e-005	-0.000466455	0	
9.01085e-006	-0.00157413	0	
3.85555e-005	-0.000474342	0	
1.01257e-005	-0.00157926	0	
3.76665e-005	-0.000482547	0	
1.08987e-005	-0.0015844	0	
3.62642e-005	-0.000491015	0	
1.12217e-005	-0.00158944	0	
3.42464e-005	-0.000499653	0	
1.09368e-005	-0.00159423	0	
3.14448e-005	-0.000508293	0	
9.75851e-006	-0.00159869	0	
2.74289e-005	-0.000516622	0	
7.02972e-006	-0.00160286	0	
2.18662e-005	-0.000524918	0	
2.18492e-006	-0.00160673	0	
1.46341e-005	-0.000533061	0	
-1.23539e-006	-0.00160831	0	
9.15647e-006	-0.000535546	0	
-5.84473e-006	-0.00160749	0	
4.06551e-006	-0.000538142	0	
-1.10722e-005	-0.00160404	0	
-2.31422e-006	-0.000540804	0	
-1.76564e-005	-0.00160075	0	
-9.7582e-006	-0.000542384	0	
-2.61996e-005	-0.00159725	0	
-1.79056e-005	-0.000543295	0	
-3.58716e-005	-0.0015927	0	
-2.64165e-005	-0.000543855	0	
6.24048e-006	-0.00154312	0	
4.86546e-005	-0.000398501	0	
2.18452e-006	-0.00154105	0	
4.47388e-005	-0.000404845	0	
-1.7284e-006	-0.00153875	0	
4.07451e-005	-0.000410929	0	
-2.68613e-006	-0.00153874	0	
4.17434e-005	-0.000416203	0	
-9.41218e-007	-0.00154138	0	
4.23194e-005	-0.000421493	0	
3.93731e-007	-0.0015443	0	
4.25885e-005	-0.00042701	0	
1.56475e-006	-0.00154759	0	
4.27635e-005	-0.000432862	0	
2.83463e-006	-0.00155128	0	
4.297e-005	-0.000439059	0	
4.30653e-006	-0.00155534	0	
4.31985e-005	-0.00044558	0	
5.92723e-006	-0.00155971	0	
4.33571e-005	-0.000452421	0	
7.57258e-006	-0.00156434	0	
4.33263e-005	-0.00045959	0	
9.10807e-006	-0.00156917	0	
4.29843e-005	-0.000467084	0	
1.041e-005	-0.0015741	0	
4.22153e-005	-0.000474879	0	
1.13682e-005	-0.00157904	0	
4.09111e-005	-0.000482923	0	
1.18754e-005	-0.00158386	0	
3.89667e-005	-0.000491143	0	
1.17963e-005	-0.00158841	0	
3.62605e-005	-0.000499419	0	
1.09127e-005	-0.00159258	0	
3.25802e-005	-0.000507569	0	
8.82544e-006	-0.00159638	0	
2.76877e-005	-0.000515597	0	
5.12489e-006	-0.00159996	0	
2.13903e-005	-0.00052391	0	
9.97662e-008	-0.00160594	0	
1.41271e-005	-0.00053048	0	
-4.22187e-006	-0.00160422	0	
7.78293e-006	-0.000532699	0	
-1.0662e-005	-0.00160115	0	
1.74977e-006	-0.000534966	0	
-1.69707e-005	-0.00159748	0	
-5.55747e-006	-0.000537249	0	
-2.51146e-005	-0.00159383	0	
-1.41356e-005	-0.000538777	0	
-3.50032e-005	-0.00158946	0	
-2.31674e-005	-0.000539591	0	
-4.55317e-005	-0.00158416	0	
5.55404e-005	-0.000393112	0	
4.58229e-006	-0.00153989	0	
5.12461e-005	-0.000399543	0	
3.29859e-007	-0.00153774	0	
4.70261e-005	-0.000405715	0	
-3.92846e-006	-0.00153536	0	
4.53053e-005	-0.000411384	0	
-2.00425e-006	-0.00153796	0	
4.59775e-005	-0.000416664	0	
-4.27982e-007	-0.00154074	0	
4.63608e-005	-0.000422009	0	
9.2936e-007	-0.00154379	0	
4.66197e-005	-0.000427557	0	
2.30254e-006	-0.00154721	0	
4.68853e-005	-0.000433394	0	
3.84251e-006	-0.00155101	0	
4.71792e-005	-0.000439548	0	
5.55109e-006	-0.00155516	0	
4.74322e-005	-0.000446024	0	
7.32808e-006	-0.00155959	0	
4.75292e-005	-0.000452823	0	
9.03456e-006	-0.00156422	0	
4.73383e-005	-0.000459937	0	
1.0529e-005	-0.00156897	0	
4.67269e-005	-0.000467342	0	
1.1682e-005	-0.00157375	0	
4.55695e-005	-0.000474989	0	
1.23791e-005	-0.00157841	0	
4.37487e-005	-0.000482814	0	
1.25021e-005	-0.00158281	0	
4.11541e-005	-0.00049074	0	
1.18798e-005	-0.0015868	0	
3.76761e-005	-0.000498658	0	
1.02413e-005	-0.00159031	0	
3.32035e-005	-0.000506489	0	
7.31106e-006	-0.00159348	0	
2.75529e-005	-0.000514307	0	
3.40356e-006	-0.001597	0	
2.02351e-005	-0.000520887	0	
-1.12059e-006	-0.00160036	0	
1.26993e-005	-0.000526781	0	
-9.72518e-006	-0.00159756	0	
5.71686e-006	-0.000528917	0	
-1.62899e-005	-0.0015941	0	
-9.22369e-007	-0.000531304	0	
-2.369e-005	-0.00159047	0	
-9.58841e-006	-0.000533726	0	
-3.37907e-005	-0.00158608	0	
-1.93054e-005	-0.000534864	0	
-4.45579e-005	-0.00158099	0	
-2.89564e-005	-0.00053579	0	
7.35194e-006	-0.0015385	0	
5.80225e-005	-0.000394077	0	
2.69476e-006	-0.00153646	0	
5.35432e-005	-0.00040031	0	
-1.78523e-006	-0.00153426	0	
4.89567e-005	-0.000406346	0	
-3.09639e-006	-0.00153439	0	
4.96454e-005	-0.000411685	0	
-1.36265e-006	-0.00153712	0	
5.00597e-005	-0.000416977	0	
1.32451e-007	-0.00154001	0	
5.03541e-005	-0.000422324	0	
1.59825e-006	-0.00154317	0	
5.06665e-005	-0.000427847	0	
3.21244e-006	-0.00154671	0	
5.10267e-005	-0.000433642	0	
5.01103e-006	-0.00155063	0	
5.13767e-005	-0.00043975	0	
6.91571e-006	-0.00155485	0	
5.1608e-005	-0.000446179	0	
8.79137e-006	-0.00155929	0	
5.15862e-005	-0.000452921	0	
1.04852e-005	-0.00156388	0	
5.1165e-005	-0.00045995	0	
1.18482e-005	-0.00156851	0	
5.02003e-005	-0.000467222	0	
1.27478e-005	-0.00157305	0	
4.85597e-005	-0.000474671	0	
1.30728e-005	-0.00157736	0	
4.61215e-005	-0.00048224	0	
1.26953e-005	-0.00158126	0	
4.2796e-005	-0.000489888	0	
1.14076e-005	-0.0015846	0	
3.85754e-005	-0.000497549	0	
8.97869e-006	-0.00158744	0	
3.34535e-005	-0.000505149	0	
5.39466e-006	-0.00159014	0	
2.71794e-005	-0.000512171	0	
3.59306e-007	-0.00159294	0	
2.0374e-005	-0.000518928	0	
-7.98168e-006	-0.00159288	0	
1.06116e-005	-0.000522204	0	
-1.56728e-005	-0.00159042	0	
3.39303e-006	-0.000525038	0	
-2.207e-005	-0.00158706	0	
-4.00871e-006	-0.00052788	0	
-3.21274e-005	-0.00158256	0	
-1.48237e-005	-0.000529577	0	
-4.32169e-005	-0.00157753	0	
-2.50226e-005	-0.000530779	0	
-5.47163e-005	-0.00157194	0	
6.50642e-005	-0.000388485	0	
5.36361e-006	-0.00153496	0	
6.02657e-005	-0.000394762	0	
6.10898e-007	-0.00153289	0	
5.55491e-005	-0.000400841	0	
-4.15591e-006	-0.00153066	0	
5.33963e-005	-0.000406524	0	
-2.31704e-006	-0.00153342	0	
5.37739e-005	-0.000411848	0	
-7.46745e-007	-0.00153621	0	
5.4018e-005	-0.000417108	0	
7.54324e-007	-0.00153916	0	
5.43253e-005	-0.000422396	0	
2.4168e-006	-0.00154244	0	
5.47332e-005	-0.000427864	0	
4.30052e-006	-0.00154612	0	
5.51745e-005	-0.000433616	0	
6.33156e-006	-0.00155013	0	
5.55407e-005	-0.00043968	0	
8.37648e-006	-0.0015544	0	
5.56973e-005	-0.000446055	0	
1.02762e-005	-0.00155883	0	
5.54916e-005	-0.000452718	0	
1.18663e-005	-0.00156332	0	
5.47604e-005	-0.000459629	0	
1.29918e-005	-0.00156775	0	
5.33517e-005	-0.000466725	0	
1.3525e-005	-0.00157199	0	
5.11338e-005	-0.000473934	0	
1.33758e-005	-0.00157588	0	
4.79898e-005	-0.000481252	0	
1.24036e-005	-0.0015792	0	
4.39108e-005	-0.000488715	0	
1.03753e-005	-0.00158183	0	
3.90825e-005	-0.000496236	0	
7.15017e-006	-0.00158401	0	
3.36006e-005	-0.000503556	0	