# vtk DataFile Version 4.1
vtk output
ASCII
DATASET UNSTRUCTURED_GRID

POINTS	7701	float
0	0	0	
0	1	0	
0	2	0	
0	3	0	
0	4	0	
0	5	0	
0	6	0	
0	7	0	
0	8	0	
0	9	0	
0	10	0	
0	11	0	
0	12	0	
0	13	0	
0	14	0	
0	15	0	
0	16	0	
0	17	0	
0	18	0	
0	19	0	
0	20	0	
0	21	0	
0	22	0	
0	23	0	
0	24	0	
0	25	0	
0	26	0	
0	27	0	
0	28	0	
0	29	0	
0	30	0	
0	31	0	
0	32	0	
0	33	0	
0	34	0	
0	35	0	
0	36	0	
0	37	0	
0	38	0	
0	39	0	
0	40	0	
0	41	0	
0	42	0	
0	43	0	
0	44	0	
0	45	0	
0	46	0	
0	47	0	
0	48	0	
0	49	0	
0	50	0	
1	0	0	
1	1	0	
1	2	0	
1	3	0	
1	4	0	
1	5	0	
1	6	0	
1	7	0	
1	8	0	
1	9	0	
1	10	0	
1	11	0	
1	12	0	
1	13	0	
1	14	0	
1	15	0	
1	16	0	
1	17	0	
1	18	0	
1	19	0	
1	20	0	
1	21	0	
1	22	0	
1	23	0	
1	24	0	
1	25	0	
1	26	0	
1	27	0	
1	28	0	
1	29	0	
1	30	0	
1	31	0	
1	32	0	
1	33	0	
1	34	0	
1	35	0	
1	36	0	
1	37	0	
1	38	0	
1	39	0	
1	40	0	
1	41	0	
1	42	0	
1	43	0	
1	44	0	
1	45	0	
1	46	0	
1	47	0	
1	48	0	
1	49	0	
1	50	0	
2	0	0	
2	1	0	
2	2	0	
2	3	0	
2	4	0	
2	5	0	
2	6	0	
2	7	0	
2	8	0	
2	9	0	
2	10	0	
2	11	0	
2	12	0	
2	13	0	
2	14	0	
2	15	0	
2	16	0	
2	17	0	
2	18	0	
2	19	0	
2	20	0	
2	21	0	
2	22	0	
2	23	0	
2	24	0	
2	25	0	
2	26	0	
2	27	0	
2	28	0	
2	29	0	
2	30	0	
2	31	0	
2	32	0	
2	33	0	
2	34	0	
2	35	0	
2	36	0	
2	37	0	
2	38	0	
2	39	0	
2	40	0	
2	41	0	
2	42	0	
2	43	0	
2	44	0	
2	45	0	
2	46	0	
2	47	0	
2	48	0	
2	49	0	
2	50	0	
3	0	0	
3	1	0	
3	2	0	
3	3	0	
3	4	0	
3	5	0	
3	6	0	
3	7	0	
3	8	0	
3	9	0	
3	10	0	
3	11	0	
3	12	0	
3	13	0	
3	14	0	
3	15	0	
3	16	0	
3	17	0	
3	18	0	
3	19	0	
3	20	0	
3	21	0	
3	22	0	
3	23	0	
3	24	0	
3	25	0	
3	26	0	
3	27	0	
3	28	0	
3	29	0	
3	30	0	
3	31	0	
3	32	0	
3	33	0	
3	34	0	
3	35	0	
3	36	0	
3	37	0	
3	38	0	
3	39	0	
3	40	0	
3	41	0	
3	42	0	
3	43	0	
3	44	0	
3	45	0	
3	46	0	
3	47	0	
3	48	0	
3	49	0	
3	50	0	
4	0	0	
4	1	0	
4	2	0	
4	3	0	
4	4	0	
4	5	0	
4	6	0	
4	7	0	
4	8	0	
4	9	0	
4	10	0	
4	11	0	
4	12	0	
4	13	0	
4	14	0	
4	15	0	
4	16	0	
4	17	0	
4	18	0	
4	19	0	
4	20	0	
4	21	0	
4	22	0	
4	23	0	
4	24	0	
4	25	0	
4	26	0	
4	27	0	
4	28	0	
4	29	0	
4	30	0	
4	31	0	
4	32	0	
4	33	0	
4	34	0	
4	35	0	
4	36	0	
4	37	0	
4	38	0	
4	39	0	
4	40	0	
4	41	0	
4	42	0	
4	43	0	
4	44	0	
4	45	0	
4	46	0	
4	47	0	
4	48	0	
4	49	0	
4	50	0	
5	0	0	
5	1	0	
5	2	0	
5	3	0	
5	4	0	
5	5	0	
5	6	0	
5	7	0	
5	8	0	
5	9	0	
5	10	0	
5	11	0	
5	12	0	
5	13	0	
5	14	0	
5	15	0	
5	16	0	
5	17	0	
5	18	0	
5	19	0	
5	20	0	
5	21	0	
5	22	0	
5	23	0	
5	24	0	
5	25	0	
5	26	0	
5	27	0	
5	28	0	
5	29	0	
5	30	0	
5	31	0	
5	32	0	
5	33	0	
5	34	0	
5	35	0	
5	36	0	
5	37	0	
5	38	0	
5	39	0	
5	40	0	
5	41	0	
5	42	0	
5	43	0	
5	44	0	
5	45	0	
5	46	0	
5	47	0	
5	48	0	
5	49	0	
5	50	0	
6	0	0	
6	1	0	
6	2	0	
6	3	0	
6	4	0	
6	5	0	
6	6	0	
6	7	0	
6	8	0	
6	9	0	
6	10	0	
6	11	0	
6	12	0	
6	13	0	
6	14	0	
6	15	0	
6	16	0	
6	17	0	
6	18	0	
6	19	0	
6	20	0	
6	21	0	
6	22	0	
6	23	0	
6	24	0	
6	25	0	
6	26	0	
6	27	0	
6	28	0	
6	29	0	
6	30	0	
6	31	0	
6	32	0	
6	33	0	
6	34	0	
6	35	0	
6	36	0	
6	37	0	
6	38	0	
6	39	0	
6	40	0	
6	41	0	
6	42	0	
6	43	0	
6	44	0	
6	45	0	
6	46	0	
6	47	0	
6	48	0	
6	49	0	
6	50	0	
7	0	0	
7	1	0	
7	2	0	
7	3	0	
7	4	0	
7	5	0	
7	6	0	
7	7	0	
7	8	0	
7	9	0	
7	10	0	
7	11	0	
7	12	0	
7	13	0	
7	14	0	
7	15	0	
7	16	0	
7	17	0	
7	18	0	
7	19	0	
7	20	0	
7	21	0	
7	22	0	
7	23	0	
7	24	0	
7	25	0	
7	26	0	
7	27	0	
7	28	0	
7	29	0	
7	30	0	
7	31	0	
7	32	0	
7	33	0	
7	34	0	
7	35	0	
7	36	0	
7	37	0	
7	38	0	
7	39	0	
7	40	0	
7	41	0	
7	42	0	
7	43	0	
7	44	0	
7	45	0	
7	46	0	
7	47	0	
7	48	0	
7	49	0	
7	50	0	
8	0	0	
8	1	0	
8	2	0	
8	3	0	
8	4	0	
8	5	0	
8	6	0	
8	7	0	
8	8	0	
8	9	0	
8	10	0	
8	11	0	
8	12	0	
8	13	0	
8	14	0	
8	15	0	
8	16	0	
8	17	0	
8	18	0	
8	19	0	
8	20	0	
8	21	0	
8	22	0	
8	23	0	
8	24	0	
8	25	0	
8	26	0	
8	27	0	
8	28	0	
8	29	0	
8	30	0	
8	31	0	
8	32	0	
8	33	0	
8	34	0	
8	35	0	
8	36	0	
8	37	0	
8	38	0	
8	39	0	
8	40	0	
8	41	0	
8	42	0	
8	43	0	
8	44	0	
8	45	0	
8	46	0	
8	47	0	
8	48	0	
8	49	0	
8	50	0	
9	0	0	
9	1	0	
9	2	0	
9	3	0	
9	4	0	
9	5	0	
9	6	0	
9	7	0	
9	8	0	
9	9	0	
9	10	0	
9	11	0	
9	12	0	
9	13	0	
9	14	0	
9	15	0	
9	16	0	
9	17	0	
9	18	0	
9	19	0	
9	20	0	
9	21	0	
9	22	0	
9	23	0	
9	24	0	
9	25	0	
9	26	0	
9	27	0	
9	28	0	
9	29	0	
9	30	0	
9	31	0	
9	32	0	
9	33	0	
9	34	0	
9	35	0	
9	36	0	
9	37	0	
9	38	0	
9	39	0	
9	40	0	
9	41	0	
9	42	0	
9	43	0	
9	44	0	
9	45	0	
9	46	0	
9	47	0	
9	48	0	
9	49	0	
9	50	0	
10	0	0	
10	1	0	
10	2	0	
10	3	0	
10	4	0	
10	5	0	
10	6	0	
10	7	0	
10	8	0	
10	9	0	
10	10	0	
10	11	0	
10	12	0	
10	13	0	
10	14	0	
10	15	0	
10	16	0	
10	17	0	
10	18	0	
10	19	0	
10	20	0	
10	21	0	
10	22	0	
10	23	0	
10	24	0	
10	25	0	
10	26	0	
10	27	0	
10	28	0	
10	29	0	
10	30	0	
10	31	0	
10	32	0	
10	33	0	
10	34	0	
10	35	0	
10	36	0	
10	37	0	
10	38	0	
10	39	0	
10	40	0	
10	41	0	
10	42	0	
10	43	0	
10	44	0	
10	45	0	
10	46	0	
10	47	0	
10	48	0	
10	49	0	
10	50	0	
11	0	0	
11	1	0	
11	2	0	
11	3	0	
11	4	0	
11	5	0	
11	6	0	
11	7	0	
11	8	0	
11	9	0	
11	10	0	
11	11	0	
11	12	0	
11	13	0	
11	14	0	
11	15	0	
11	16	0	
11	17	0	
11	18	0	
11	19	0	
11	20	0	
11	21	0	
11	22	0	
11	23	0	
11	24	0	
11	25	0	
11	26	0	
11	27	0	
11	28	0	
11	29	0	
11	30	0	
11	31	0	
11	32	0	
11	33	0	
11	34	0	
11	35	0	
11	36	0	
11	37	0	
11	38	0	
11	39	0	
11	40	0	
11	41	0	
11	42	0	
11	43	0	
11	44	0	
11	45	0	
11	46	0	
11	47	0	
11	48	0	
11	49	0	
11	50	0	
12	0	0	
12	1	0	
12	2	0	
12	3	0	
12	4	0	
12	5	0	
12	6	0	
12	7	0	
12	8	0	
12	9	0	
12	10	0	
12	11	0	
12	12	0	
12	13	0	
12	14	0	
12	15	0	
12	16	0	
12	17	0	
12	18	0	
12	19	0	
12	20	0	
12	21	0	
12	22	0	
12	23	0	
12	24	0	
12	25	0	
12	26	0	
12	27	0	
12	28	0	
12	29	0	
12	30	0	
12	31	0	
12	32	0	
12	33	0	
12	34	0	
12	35	0	
12	36	0	
12	37	0	
12	38	0	
12	39	0	
12	40	0	
12	41	0	
12	42	0	
12	43	0	
12	44	0	
12	45	0	
12	46	0	
12	47	0	
12	48	0	
12	49	0	
12	50	0	
13	0	0	
13	1	0	
13	2	0	
13	3	0	
13	4	0	
13	5	0	
13	6	0	
13	7	0	
13	8	0	
13	9	0	
13	10	0	
13	11	0	
13	12	0	
13	13	0	
13	14	0	
13	15	0	
13	16	0	
13	17	0	
13	18	0	
13	19	0	
13	20	0	
13	21	0	
13	22	0	
13	23	0	
13	24	0	
13	25	0	
13	26	0	
13	27	0	
13	28	0	
13	29	0	
13	30	0	
13	31	0	
13	32	0	
13	33	0	
13	34	0	
13	35	0	
13	36	0	
13	37	0	
13	38	0	
13	39	0	
13	40	0	
13	41	0	
13	42	0	
13	43	0	
13	44	0	
13	45	0	
13	46	0	
13	47	0	
13	48	0	
13	49	0	
13	50	0	
14	0	0	
14	1	0	
14	2	0	
14	3	0	
14	4	0	
14	5	0	
14	6	0	
14	7	0	
14	8	0	
14	9	0	
14	10	0	
14	11	0	
14	12	0	
14	13	0	
14	14	0	
14	15	0	
14	16	0	
14	17	0	
14	18	0	
14	19	0	
14	20	0	
14	21	0	
14	22	0	
14	23	0	
14	24	0	
14	25	0	
14	26	0	
14	27	0	
14	28	0	
14	29	0	
14	30	0	
14	31	0	
14	32	0	
14	33	0	
14	34	0	
14	35	0	
14	36	0	
14	37	0	
14	38	0	
14	39	0	
14	40	0	
14	41	0	
14	42	0	
14	43	0	
14	44	0	
14	45	0	
14	46	0	
14	47	0	
14	48	0	
14	49	0	
14	50	0	
15	0	0	
15	1	0	
15	2	0	
15	3	0	
15	4	0	
15	5	0	
15	6	0	
15	7	0	
15	8	0	
15	9	0	
15	10	0	
15	11	0	
15	12	0	
15	13	0	
15	14	0	
15	15	0	
15	16	0	
15	17	0	
15	18	0	
15	19	0	
15	20	0	
15	21	0	
15	22	0	
15	23	0	
15	24	0	
15	25	0	
15	26	0	
15	27	0	
15	28	0	
15	29	0	
15	30	0	
15	31	0	
15	32	0	
15	33	0	
15	34	0	
15	35	0	
15	36	0	
15	37	0	
15	38	0	
15	39	0	
15	40	0	
15	41	0	
15	42	0	
15	43	0	
15	44	0	
15	45	0	
15	46	0	
15	47	0	
15	48	0	
15	49	0	
15	50	0	
16	0	0	
16	1	0	
16	2	0	
16	3	0	
16	4	0	
16	5	0	
16	6	0	
16	7	0	
16	8	0	
16	9	0	
16	10	0	
16	11	0	
16	12	0	
16	13	0	
16	14	0	
16	15	0	
16	16	0	
16	17	0	
16	18	0	
16	19	0	
16	20	0	
16	21	0	
16	22	0	
16	23	0	
16	24	0	
16	25	0	
16	26	0	
16	27	0	
16	28	0	
16	29	0	
16	30	0	
16	31	0	
16	32	0	
16	33	0	
16	34	0	
16	35	0	
16	36	0	
16	37	0	
16	38	0	
16	39	0	
16	40	0	
16	41	0	
16	42	0	
16	43	0	
16	44	0	
16	45	0	
16	46	0	
16	47	0	
16	48	0	
16	49	0	
16	50	0	
17	0	0	
17	1	0	
17	2	0	
17	3	0	
17	4	0	
17	5	0	
17	6	0	
17	7	0	
17	8	0	
17	9	0	
17	10	0	
17	11	0	
17	12	0	
17	13	0	
17	14	0	
17	15	0	
17	16	0	
17	17	0	
17	18	0	
17	19	0	
17	20	0	
17	21	0	
17	22	0	
17	23	0	
17	24	0	
17	25	0	
17	26	0	
17	27	0	
17	28	0	
17	29	0	
17	30	0	
17	31	0	
17	32	0	
17	33	0	
17	34	0	
17	35	0	
17	36	0	
17	37	0	
17	38	0	
17	39	0	
17	40	0	
17	41	0	
17	42	0	
17	43	0	
17	44	0	
17	45	0	
17	46	0	
17	47	0	
17	48	0	
17	49	0	
17	50	0	
18	0	0	
18	1	0	
18	2	0	
18	3	0	
18	4	0	
18	5	0	
18	6	0	
18	7	0	
18	8	0	
18	9	0	
18	10	0	
18	11	0	
18	12	0	
18	13	0	
18	14	0	
18	15	0	
18	16	0	
18	17	0	
18	18	0	
18	19	0	
18	20	0	
18	21	0	
18	22	0	
18	23	0	
18	24	0	
18	25	0	
18	26	0	
18	27	0	
18	28	0	
18	29	0	
18	30	0	
18	31	0	
18	32	0	
18	33	0	
18	34	0	
18	35	0	
18	36	0	
18	37	0	
18	38	0	
18	39	0	
18	40	0	
18	41	0	
18	42	0	
18	43	0	
18	44	0	
18	45	0	
18	46	0	
18	47	0	
18	48	0	
18	49	0	
18	50	0	
19	0	0	
19	1	0	
19	2	0	
19	3	0	
19	4	0	
19	5	0	
19	6	0	
19	7	0	
19	8	0	
19	9	0	
19	10	0	
19	11	0	
19	12	0	
19	13	0	
19	14	0	
19	15	0	
19	16	0	
19	17	0	
19	18	0	
19	19	0	
19	20	0	
19	21	0	
19	22	0	
19	23	0	
19	24	0	
19	25	0	
19	26	0	
19	27	0	
19	28	0	
19	29	0	
19	30	0	
19	31	0	
19	32	0	
19	33	0	
19	34	0	
19	35	0	
19	36	0	
19	37	0	
19	38	0	
19	39	0	
19	40	0	
19	41	0	
19	42	0	
19	43	0	
19	44	0	
19	45	0	
19	46	0	
19	47	0	
19	48	0	
19	49	0	
19	50	0	
20	0	0	
20	1	0	
20	2	0	
20	3	0	
20	4	0	
20	5	0	
20	6	0	
20	7	0	
20	8	0	
20	9	0	
20	10	0	
20	11	0	
20	12	0	
20	13	0	
20	14	0	
20	15	0	
20	16	0	
20	17	0	
20	18	0	
20	19	0	
20	20	0	
20	21	0	
20	22	0	
20	23	0	
20	24	0	
20	25	0	
20	26	0	
20	27	0	
20	28	0	
20	29	0	
20	30	0	
20	31	0	
20	32	0	
20	33	0	
20	34	0	
20	35	0	
20	36	0	
20	37	0	
20	38	0	
20	39	0	
20	40	0	
20	41	0	
20	42	0	
20	43	0	
20	44	0	
20	45	0	
20	46	0	
20	47	0	
20	48	0	
20	49	0	
20	50	0	
21	0	0	
21	1	0	
21	2	0	
21	3	0	
21	4	0	
21	5	0	
21	6	0	
21	7	0	
21	8	0	
21	9	0	
21	10	0	
21	11	0	
21	12	0	
21	13	0	
21	14	0	
21	15	0	
21	16	0	
21	17	0	
21	18	0	
21	19	0	
21	20	0	
21	21	0	
21	22	0	
21	23	0	
21	24	0	
21	25	0	
21	26	0	
21	27	0	
21	28	0	
21	29	0	
21	30	0	
21	31	0	
21	32	0	
21	33	0	
21	34	0	
21	35	0	
21	36	0	
21	37	0	
21	38	0	
21	39	0	
21	40	0	
21	41	0	
21	42	0	
21	43	0	
21	44	0	
21	45	0	
21	46	0	
21	47	0	
21	48	0	
21	49	0	
21	50	0	
22	0	0	
22	1	0	
22	2	0	
22	3	0	
22	4	0	
22	5	0	
22	6	0	
22	7	0	
22	8	0	
22	9	0	
22	10	0	
22	11	0	
22	12	0	
22	13	0	
22	14	0	
22	15	0	
22	16	0	
22	17	0	
22	18	0	
22	19	0	
22	20	0	
22	21	0	
22	22	0	
22	23	0	
22	24	0	
22	25	0	
22	26	0	
22	27	0	
22	28	0	
22	29	0	
22	30	0	
22	31	0	
22	32	0	
22	33	0	
22	34	0	
22	35	0	
22	36	0	
22	37	0	
22	38	0	
22	39	0	
22	40	0	
22	41	0	
22	42	0	
22	43	0	
22	44	0	
22	45	0	
22	46	0	
22	47	0	
22	48	0	
22	49	0	
22	50	0	
23	0	0	
23	1	0	
23	2	0	
23	3	0	
23	4	0	
23	5	0	
23	6	0	
23	7	0	
23	8	0	
23	9	0	
23	10	0	
[...]
POINT_DATA	7701
VECTORS d float
2.63647e-016	-0.00116908	0	
2.59674e-016	-0.000218461	0	
2.49534e-016	-0.00116649	0	
2.41848e-016	-0.000224476	0	
2.31228e-016	-0.0011638	0	
2.23484e-016	-0.000230364	0	
2.13472e-016	-0.00116098	0	
2.09057e-016	-0.000236142	0	
2.09081e-016	-0.00115804	0	
1.72441e-016	-0.000242119	0	
3.81958e-017	-0.00115679	0	
-3.32294e-017	-0.00025588	0	
8.91241e-017	-0.00115791	0	
-1.34657e-017	-0.000269302	0	
5.37374e-017	-0.00116	0	
-2.7435e-017	-0.000282305	0	
5.88613e-017	-0.00116291	0	
2.78299e-018	-0.000294938	0	
7.44598e-017	-0.00116654	0	
-1.26562e-017	-0.0003073	0	
5.50543e-017	-0.00117081	0	
-2.15847e-017	-0.000319433	0	
6.06184e-017	-0.00117568	0	
-2.00534e-017	-0.000331336	0	
4.59851e-017	-0.00118118	0	
-2.97466e-017	-0.000342988	0	
4.87821e-017	-0.00118733	0	
-1.23713e-017	-0.000354414	0	
7.124e-017	-0.00119416	0	
-2.65118e-017	-0.00036567	0	
5.11813e-017	-0.00120164	0	
-6.14883e-017	-0.000376801	0	
1.76193e-017	-0.00120979	0	
-9.52964e-017	-0.000387861	0	
1.10979e-017	-0.00121862	0	
-9.45238e-017	-0.000398838	0	
5.92559e-017	-0.0012281	0	
-7.64054e-017	-0.000409688	0	
5.1307e-017	-0.00123823	0	
-1.40092e-016	-0.000420084	0	
1.72205e-017	-0.00124909	0	
-1.24173e-016	-0.000429585	0	
2.65892e-016	-0.00126033	0	
2.09088e-016	-0.000440039	0	
1.5337e-016	-0.00126885	0	
-9.04109e-017	-0.000442256	0	
-1.21222e-016	-0.00127309	0	
-3.22612e-016	-0.000436807	0	
-3.17605e-016	-0.00127906	0	
-4.87341e-016	-0.000432035	0	
-1.20818e-015	-0.00130003	0	
4.28937e-006	-0.000215365	0	
-1.35073e-007	-0.00116776	0	
4.14812e-006	-0.000221451	0	
-2.79902e-007	-0.00116512	0	
4.00472e-006	-0.000227399	0	
-4.21713e-007	-0.00116237	0	
3.85861e-006	-0.000233228	0	
-5.68815e-007	-0.00115948	0	
3.91339e-006	-0.000238935	0	
-6.6448e-007	-0.00115651	0	
3.54768e-006	-0.000248941	0	
-3.74759e-007	-0.00115719	0	
3.53128e-006	-0.000262595	0	
-9.96464e-008	-0.00115881	0	
3.42227e-006	-0.000275797	0	
1.76381e-007	-0.00116132	0	
3.30183e-006	-0.000288594	0	
4.51224e-007	-0.00116461	0	
3.15532e-006	-0.000301075	0	
7.19284e-007	-0.00116856	0	
2.98571e-006	-0.000313317	0	
9.83784e-007	-0.00117312	0	
2.79242e-006	-0.000325318	0	
1.2514e-006	-0.00117831	0	
2.58342e-006	-0.000337082	0	
1.529e-006	-0.00118412	0	
2.36076e-006	-0.000348612	0	
1.81756e-006	-0.00119059	0	
2.13724e-006	-0.000359936	0	
2.12238e-006	-0.00119775	0	
1.90132e-006	-0.00037111	0	
2.43501e-006	-0.00120556	0	
1.63712e-006	-0.00038218	0	
2.75744e-006	-0.00121404	0	
1.32222e-006	-0.000393177	0	
3.12068e-006	-0.0012232	0	
9.08483e-007	-0.000404083	0	
3.53886e-006	-0.00123303	0	
3.06599e-007	-0.000414814	0	
4.02062e-006	-0.0012436	0	
-3.79821e-007	-0.000424921	0	
5.0666e-006	-0.00125525	0	
-3.41776e-007	-0.000434873	0	
8.70515e-006	-0.00126748	0	
-2.17002e-006	-0.000440431	0	
3.31376e-006	-0.00126943	0	
-4.71952e-006	-0.00043797	0	
1.83144e-006	-0.00127422	0	
-5.96303e-006	-0.000432821	0	
2.51194e-006	-0.0012825	0	
-1.10306e-005	-0.000420608	0	
-1.22751e-007	-0.00116893	0	
8.43697e-006	-0.000218323	0	
-4.14445e-007	-0.00116635	0	
8.15242e-006	-0.000224334	0	
-7.02029e-007	-0.00116366	0	
7.86389e-006	-0.000230217	0	
-9.8467e-007	-0.00116084	0	
7.57742e-006	-0.000235993	0	
-1.26507e-006	-0.00115788	0	
7.18165e-006	-0.00024174	0	
-1.0654e-006	-0.0011566	0	
7.12622e-006	-0.000255698	0	
-4.88594e-007	-0.00115778	0	
6.9656e-006	-0.000269087	0	
8.3814e-008	-0.00115987	0	
6.73679e-006	-0.000282037	0	
6.33606e-007	-0.00116278	0	
6.46262e-006	-0.000294645	0	
1.17221e-006	-0.0011664	0	
6.13841e-006	-0.00030698	0	
1.69942e-006	-0.00117065	0	
5.77732e-006	-0.000319073	0	
2.23134e-006	-0.0011755	0	
5.3806e-006	-0.000330934	0	
2.77882e-006	-0.00118099	0	
4.95005e-006	-0.00034254	0	
3.34411e-006	-0.00118713	0	
4.50127e-006	-0.000353918	0	
3.92986e-006	-0.00119391	0	
4.03758e-006	-0.00036513	0	
4.53872e-006	-0.00120136	0	
3.54335e-006	-0.00037621	0	
5.16497e-006	-0.00120948	0	
2.9851e-006	-0.000387191	0	
5.83007e-006	-0.00121828	0	
2.30577e-006	-0.000398064	0	
6.58824e-006	-0.00122781	0	
1.36548e-006	-0.000408854	0	
7.49463e-006	-0.0012381	0	
9.90037e-008	-0.000419558	0	
8.74848e-006	-0.00124958	0	
-8.65757e-007	-0.000429712	0	
1.3482e-005	-0.00126406	0	
-1.43601e-006	-0.000437466	0	
7.37486e-006	-0.00126519	0	
-6.29247e-006	-0.000436227	0	
3.62858e-006	-0.00126847	0	
-9.76457e-006	-0.000432055	0	
2.00367e-006	-0.00127319	0	
-1.375e-005	-0.000423204	0	
-6.0587e-006	-0.00127526	0	
1.28639e-005	-0.000215093	0	
-4.00838e-007	-0.00116746	0	
1.24402e-005	-0.00022117	0	
-8.35638e-007	-0.00116484	0	
1.20106e-005	-0.000227109	0	
-1.26465e-006	-0.00116209	0	
1.15769e-005	-0.000232932	0	
-1.68631e-006	-0.0011592	0	
1.11258e-005	-0.000238641	0	
-2.11921e-006	-0.0011563	0	
1.08219e-005	-0.000248597	0	
-1.17314e-006	-0.00115694	0	
1.05936e-005	-0.000262194	0	
-3.12109e-007	-0.00115857	0	
1.02766e-005	-0.000275315	0	
5.26067e-007	-0.00116107	0	
9.88985e-006	-0.00028804	0	
1.34358e-006	-0.00116433	0	
9.43915e-006	-0.000300457	0	
2.14269e-006	-0.00116826	0	
8.93079e-006	-0.000312625	0	
2.93525e-006	-0.00117281	0	
8.35498e-006	-0.000324555	0	
3.73271e-006	-0.00117796	0	
7.73351e-006	-0.00033624	0	
4.56218e-006	-0.00118374	0	
7.0767e-006	-0.000347683	0	
5.42432e-006	-0.00119016	0	
6.39595e-006	-0.000358912	0	
6.32061e-006	-0.00119723	0	
5.69331e-006	-0.000369987	0	
7.24387e-006	-0.00120497	0	
4.92874e-006	-0.000380943	0	
8.18545e-006	-0.00121337	0	
4.05027e-006	-0.000391764	0	
9.18572e-006	-0.00122252	0	
2.95423e-006	-0.000402448	0	
1.03732e-005	-0.00123247	0	
1.46446e-006	-0.000413133	0	
1.18876e-005	-0.00124336	0	
-2.21001e-007	-0.000423999	0	
1.47883e-005	-0.00125677	0	
-5.46995e-007	-0.000432618	0	
1.1672e-005	-0.00126057	0	
-5.82782e-006	-0.000432937	0	
6.09824e-006	-0.0012627	0	
-1.13318e-005	-0.000429882	0	
2.33284e-006	-0.00126579	0	
-1.58818e-005	-0.000423869	0	
-3.87716e-006	-0.00126802	0	
-2.20186e-005	-0.000417226	0	
-2.36522e-007	-0.00116847	0	
1.68653e-005	-0.000217909	0	
-8.20182e-007	-0.00116591	0	
1.62965e-005	-0.000223906	0	
-1.39626e-006	-0.00116323	0	
1.57206e-005	-0.000229777	0	
-1.96447e-006	-0.00116042	0	
1.51355e-005	-0.000235539	0	
-2.54889e-006	-0.00115748	0	
1.45251e-005	-0.000241367	0	
-2.18407e-006	-0.00115628	0	
1.42975e-005	-0.000255138	0	
-9.99112e-007	-0.00115743	0	
1.3923e-005	-0.000268415	0	
1.42489e-007	-0.00115951	0	
1.34481e-005	-0.000281269	0	
1.2444e-006	-0.00116239	0	
1.28827e-005	-0.00029378	0	
2.31751e-006	-0.00116598	0	
1.2243e-005	-0.000306009	0	
3.37608e-006	-0.0011702	0	
1.15203e-005	-0.000317999	0	
4.42732e-006	-0.00117502	0	
1.0715e-005	-0.000329739	0	
5.49782e-006	-0.00118045	0	
9.86063e-006	-0.00034123	0	
6.61206e-006	-0.00118652	0	
8.96246e-006	-0.000352489	0	
7.77416e-006	-0.0011932	0	
8.0466e-006	-0.000363555	0	
8.96694e-006	-0.00120054	0	
7.08132e-006	-0.000374473	0	
1.01852e-005	-0.00120853	0	
6.02791e-006	-0.000385243	0	
1.14188e-005	-0.00121723	0	
4.81002e-006	-0.000395836	0	
1.27482e-005	-0.00122672	0	
3.34346e-006	-0.000406229	0	
1.43897e-005	-0.00123711	0	
1.42122e-006	-0.000416833	0	
1.64579e-005	-0.00124828	0	
2.64009e-007	-0.000427268	0	
1.52155e-005	-0.00125631	0	
-4.31527e-006	-0.000428542	0	
9.3345e-006	-0.001257	0	
-1.12063e-005	-0.000426503	0	
3.69516e-006	-0.00125898	0	
-1.67402e-005	-0.000422468	0	
-2.32548e-006	-0.00126092	0	
-2.27791e-005	-0.000416948	0	
-1.18342e-005	-0.00126086	0	
2.14253e-005	-0.00021455	0	
-6.53229e-007	-0.00116687	0	
2.07191e-005	-0.000220609	0	
-1.37821e-006	-0.00116426	0	
2.00034e-005	-0.00022653	0	
-2.09337e-006	-0.00116153	0	
1.92778e-005	-0.000232334	0	
-2.79922e-006	-0.00115866	0	
1.85352e-005	-0.000238029	0	
-3.45665e-006	-0.00115577	0	
1.80319e-005	-0.00024792	0	
-1.99597e-006	-0.00115648	0	
1.76318e-005	-0.000261361	0	
-5.59915e-007	-0.0011581	0	
1.70849e-005	-0.000274351	0	
8.39459e-007	-0.00116057	0	
1.64375e-005	-0.000286959	0	
2.20332e-006	-0.0011638	0	
1.56834e-005	-0.000299248	0	
3.52619e-006	-0.00116769	0	
1.4828e-005	-0.000311277	0	
4.83879e-006	-0.0011722	0	
1.38734e-005	-0.00032306	0	
6.1601e-006	-0.0011773	0	
1.28388e-005	-0.000334592	0	
7.51641e-006	-0.00118299	0	
1.17473e-005	-0.000345884	0	
8.92218e-006	-0.00118931	0	
1.06161e-005	-0.000356937	0	
1.03707e-005	-0.00119624	0	
9.44826e-006	-0.000367814	0	
1.18562e-005	-0.0012038	0	
8.21988e-006	-0.000378536	0	
1.33469e-005	-0.00121202	0	
6.86384e-006	-0.00038908	0	
1.48182e-005	-0.001221	0	
5.31576e-006	-0.000399336	0	
1.64019e-005	-0.0012308	0	
3.62307e-006	-0.00040925	0	
1.83172e-005	-0.00124129	0	
1.34657e-006	-0.000419796	0	
1.87965e-005	-0.00124995	0	
-4.18377e-006	-0.000421658	0	
1.31493e-005	-0.00125135	0	
-9.89392e-006	-0.000422177	0	
5.86423e-006	-0.00125243	0	
-1.6322e-005	-0.000419573	0	
-6.73057e-007	-0.00125402	0	
-2.27192e-005	-0.000415411	0	
-9.08577e-006	-0.00125449	0	
-3.04823e-005	-0.000411188	0	
-3.32204e-007	-0.00116772	0	
2.52759e-005	-0.000217218	0	
-1.208e-006	-0.00116517	0	
2.44225e-005	-0.000223194	0	
-2.07223e-006	-0.00116252	0	
2.35576e-005	-0.000229041	0	
-2.92469e-006	-0.00115973	0	
2.26814e-005	-0.00023478	0	
-3.75636e-006	-0.00115682	0	
2.18043e-005	-0.000240595	0	
-3.26182e-006	-0.00115566	0	
2.14098e-005	-0.000254174	0	
-1.53211e-006	-0.00115686	0	
2.08287e-005	-0.0002673	0	
1.54431e-007	-0.00115892	0	
2.01046e-005	-0.000279997	0	
1.80169e-006	-0.00116177	0	
1.9261e-005	-0.000292358	0	
3.4135e-006	-0.00116531	0	
1.8295e-005	-0.000304428	0	
4.98302e-006	-0.00116948	0	
1.72027e-005	-0.000316249	0	
6.54587e-006	-0.00117425	0	
1.59957e-005	-0.000327807	0	
8.12724e-006	-0.0011796	0	
1.47053e-005	-0.000339106	0	
9.75194e-006	-0.00118555	0	
1.33755e-005	-0.000350165	0	
1.14476e-005	-0.00119209	0	
1.20063e-005	-0.000361017	0	
1.31793e-005	-0.00119921	0	
1.0582e-005	-0.000371687	0	
1.49272e-005	-0.00120696	0	
9.07483e-006	-0.000382164	0	
1.66376e-005	-0.0012154	0	
7.42027e-006	-0.000392394	0	
1.82621e-005	-0.00122463	0	
5.57551e-006	-0.000402164	0	
1.99707e-005	-0.00123456	0	
3.76374e-006	-0.00041139	0	
2.11133e-005	-0.00124375	0	
-1.402e-006	-0.000417319	0	
1.55487e-005	-0.00124604	0	
-7.52556e-006	-0.000417068	0	
8.43532e-006	-0.00124606	0	
-1.47848e-005	-0.000415639	0	
1.32784e-006	-0.0012473	0	
-2.17607e-005	-0.0004127	0	
-6.70206e-006	-0.00124796	0	
-2.93516e-005	-0.000409084	0	
-1.7134e-005	-0.00124706	0	
2.99644e-005	-0.000213734	0	
-8.83045e-007	-0.00116597	0	
2.89754e-005	-0.000219767	0	
-1.89819e-006	-0.00116339	0	
2.79729e-005	-0.000225661	0	
-2.8998e-006	-0.00116069	0	
2.6957e-005	-0.000231438	0	
-3.88762e-006	-0.00115785	0	
2.59287e-005	-0.000237103	0	
-4.78815e-006	-0.00115497	0	
2.521e-005	-0.000246873	0	
-2.80596e-006	-0.00115575	0	
2.4619e-005	-0.000260122	0	
-8.36185e-007	-0.00115741	0	
2.38567e-005	-0.000272925	0	
1.10095e-006	-0.00115987	0	
2.29365e-005	-0.000285356	0	
2.98917e-006	-0.00116305	0	
2.18735e-005	-0.000297475	0	
4.83303e-006	-0.00116689	0	
2.06679e-005	-0.000309312	0	
6.64883e-006	-0.00117133	0	
1.93279e-005	-0.000320897	0	
8.46771e-006	-0.00117635	0	
1.78728e-005	-0.000332212	0	
1.03182e-005	-0.00118194	0	
1.63476e-005	-0.000343267	0	
1.22261e-005	-0.0011881	0	
1.47682e-005	-0.000354086	0	
1.41908e-005	-0.00119483	0	
1.31445e-005	-0.000364706	0	
1.61822e-005	-0.00120211	0	
1.14553e-005	-0.000375129	0	
1.81498e-005	-0.00120999	0	
9.67426e-006	-0.000385306	0	
2.00158e-005	-0.00121859	0	
7.68582e-006	-0.000395144	0	
2.16328e-005	-0.00122805	0	
5.46498e-006	-0.000404266	0	
2.35739e-005	-0.00123808	0	
2.22987e-006	-0.000411569	0	
1.6869e-005	-0.0012386	0	
-4.47219e-006	-0.000411628	0	
1.07214e-005	-0.0012402	0	
-1.22889e-005	-0.000410952	0	
3.62143e-006	-0.00124082	0	
-1.99316e-005	-0.000409058	0	
-4.35214e-006	-0.00124146	0	
-2.77146e-005	-0.000406234	0	
-1.39338e-005	-0.00124106	0	
-3.65849e-005	-0.000403473	0	
-4.00715e-007	-0.00116666	0	
3.36594e-005	-0.000216251	0	
-1.56871e-006	-0.00116414	0	
3.25213e-005	-0.000222195	0	
-2.72126e-006	-0.00116152	0	
3.13677e-005	-0.000228011	0	
-3.85829e-006	-0.00115877	0	
3.01987e-005	-0.000233719	0	
-4.97784e-006	-0.00115588	0	
2.90336e-005	-0.000239493	0	
-4.32233e-006	-0.00115478	0	
2.84774e-005	-0.000252842	0	
-2.08727e-006	-0.00115604	0	
2.76947e-005	-0.000265748	0	
1.17125e-007	-0.00115811	0	
2.6724e-005	-0.000278254	0	
2.28753e-006	-0.00116094	0	
2.55847e-005	-0.000290411	0	
4.41098e-006	-0.00116444	0	
2.42883e-005	-0.000302276	0	
6.4863e-006	-0.00116855	0	
2.28167e-005	-0.000313874	0	
8.53227e-006	-0.00117323	0	
2.12096e-005	-0.000325201	0	
1.05963e-005	-0.00117848	0	
1.94959e-005	-0.000336257	0	
1.27038e-005	-0.00118428	0	
1.77194e-005	-0.000347056	0	
1.48791e-005	-0.00119062	0	
1.58977e-005	-0.000357628	0	
1.71028e-005	-0.00119749	0	
1.40026e-005	-0.000367997	0	
1.93137e-005	-0.00120486	0	
1.20406e-005	-0.000378129	0	
2.14495e-005	-0.00121282	0	
9.97161e-006	-0.000387911	0	
2.33699e-005	-0.00122154	0	
7.53308e-006	-0.00039725	0	
2.49271e-005	-0.00123141	0	
4.73482e-006	-0.000405371	0	
2.01852e-005	-0.00123315	0	
-1.69768e-006	-0.000406729	0	
1.337e-005	-0.00123419	0	
-9.41942e-006	-0.000405732	0	
6.06198e-006	-0.00123472	0	
-1.73678e-005	-0.000404709	0	
-1.88034e-006	-0.00123512	0	
-2.54954e-005	-0.000402699	0	
-1.10403e-005	-0.00123496	0	
-3.41889e-005	-0.000400282	0	
-2.19536e-005	-0.00123361	0	
3.84719e-005	-0.000212647	0	
-1.0812e-006	-0.00116478	0	
3.72001e-005	-0.000218644	0	
-2.38663e-006	-0.00116223	0	
3.59109e-005	-0.000224501	0	
-3.67461e-006	-0.00115957	0	
3.46043e-005	-0.000230242	0	
-4.94539e-006	-0.00115676	0	
3.32753e-005	-0.000235872	0	
-6.1056e-006	-0.00115392	0	
3.235e-005	-0.000245493	0	
-3.61257e-006	-0.0011548	0	
3.15784e-005	-0.000258485	0	
-1.15139e-006	-0.0011565	0	
3.05838e-005	-0.000271058	0	
1.28579e-006	-0.00115896	0	
2.93861e-005	-0.000283272	0	
3.67458e-006	-0.00116211	0	
2.80122e-005	-0.000295157	0	
6.02552e-006	-0.00116589	0	
2.64505e-005	-0.000306761	0	
8.33066e-006	-0.00117026	0	
2.47116e-005	-0.000318089	0	
1.06171e-005	-0.00117517	0	
2.2837e-005	-0.000329153	0	
1.29223e-005	-0.00118062	0	
2.08712e-005	-0.000339942	0	
1.52861e-005	-0.00118659	0	
1.88528e-005	-0.000350464	0	
1.77085e-005	-0.00119308	0	
1.67665e-005	-0.000360774	0	
2.01567e-005	-0.00120004	0	
1.4576e-005	-0.000370877	0	
2.25352e-005	-0.00120743	0	
1.23438e-005	-0.000380656	0	
2.4763e-005	-0.0012154	0	
9.91686e-006	-0.000389906	0	
2.65367e-005	-0.00122408	0	
6.82421e-006	-0.00039829	0	
2.30662e-005	-0.00122796	0	
1.18574e-006	-0.000400832	0	
1.64352e-005	-0.00122811	0	
-6.65776e-006	-0.000400519	0	
8.86245e-006	-0.00122869	0	
-1.44114e-005	-0.00039985	0	
7.73129e-007	-0.001229	0	
-2.2727e-005	-0.000398585	0	
-8.19923e-006	-0.00122891	0	
-3.1507e-005	-0.000396681	0	
-1.8498e-005	-0.00122795	0	
-4.10631e-005	-0.00039484	0	
-4.33057e-007	-0.0011653	0	
4.20068e-005	-0.000215008	0	
-1.89331e-006	-0.00116282	0	
4.05839e-005	-0.000220911	0	
-3.33421e-006	-0.00116024	0	
3.91417e-005	-0.000226686	0	
-4.75575e-006	-0.00115753	0	
3.76802e-005	-0.000232353	0	
-6.15335e-006	-0.00115468	0	
3.62174e-005	-0.00023808	0	
-5.3824e-006	-0.00115367	0	
3.55084e-005	-0.00025115	0	
-2.66906e-006	-0.00115501	0	
3.45114e-005	-0.000263791	0	
1.79521e-008	-0.00115711	0	
3.32919e-005	-0.000276055	0	
2.68016e-006	-0.00115992	0	
3.18632e-005	-0.000287968	0	
5.28958e-006	-0.00116336	0	
3.02211e-005	-0.000299578	0	
7.85116e-006	-0.00116741	0	
2.83717e-005	-0.000310911	0	
1.03751e-005	-0.00117201	0	
2.63498e-005	-0.000321961	0	
1.28882e-005	-0.00117712	0	
2.41995e-005	-0.000332753	0	
1.54229e-005	-0.00118274	0	
2.19854e-005	-0.000343249	0	
1.8015e-005	-0.00118886	0	
1.97184e-005	-0.000353484	0	
2.06668e-005	-0.00119546	0	
1.73366e-005	-0.000363528	0	
2.32825e-005	-0.00120245	0	
1.48225e-005	-0.000373371	0	
2.57525e-005	-0.00120976	0	
1.23392e-005	-0.000382705	0	
2.79792e-005	-0.00121772	0	
9.244e-006	-0.000391141	0	
2.61694e-005	-0.00122242	0	
3.01423e-006	-0.000393434	0	
1.9644e-005	-0.00122215	0	
-3.63536e-006	-0.000394833	0	
1.18678e-005	-0.00122254	0	
-1.12841e-005	-0.00039476	0	
3.68794e-006	-0.00122297	0	
-1.95441e-005	-0.000394021	0	
-5.26053e-006	-0.00122296	0	
-2.84508e-005	-0.00039267	0	
-1.52466e-005	-0.00122224	0	
-3.79178e-005	-0.00039103	0	
-2.64283e-005	-0.0012206	0	
4.69389e-005	-0.000211288	0	
-1.2387e-006	-0.00116329	0	
4.53842e-005	-0.000217239	0	
-2.83445e-006	-0.00116079	0	
4.38083e-005	-0.000223052	0	
-4.40891e-006	-0.00115817	0	
4.22111e-005	-0.000228747	0	
-5.9621e-006	-0.00115541	0	
4.05897e-005	-0.000234332	0	
-7.37803e-006	-0.00115261	0	
3.94366e-005	-0.000243768	0	
-4.43249e-006	-0.00115361	0	
3.84823e-005	-0.000256476	0	
-1.51304e-006	-0.00115537	0	
3.72469e-005	-0.000268771	0	
1.38956e-006	-0.00115785	0	
3.57825e-005	-0.000280714	0	
4.25962e-006	-0.00116098	0	
3.40856e-005	-0.000292325	0	
7.08325e-006	-0.00116471	0	
3.21607e-005	-0.000303651	0	
9.85966e-006	-0.00116899	0	
3.0021e-005	-0.000314702	0	
1.25958e-005	-0.00117379	0	
2.7704e-005	-0.000325482	0	
1.5322e-005	-0.00117908	0	
2.5299e-005	-0.000335975	0	
1.80779e-005	-0.00118484	0	
2.285e-005	-0.000346169	0	
2.08989e-005	-0.00119106	0	
2.03427e-005	-0.00035611	0	
2.37566e-005	-0.00119773	0	
1.76243e-005	-0.000365942	0	
2.64341e-005	-0.00120466	0	
1.47794e-005	-0.000375575	0	
2.89336e-005	-0.00121186	0	
1.20853e-005	-0.000384286	0	
2.87319e-005	-0.00121749	0	
6.0043e-006	-0.000386897	0	
2.2165e-005	-0.00121689	0	
-4.54733e-007	-0.00038879	0	
1.48722e-005	-0.0012165	0	
-7.85815e-006	-0.000389377	0	
6.75487e-006	-0.00121691	0	
-1.60295e-005	-0.000389155	0	
-2.14296e-006	-0.00121708	0	
-2.50094e-005	-0.000388293	0	
-1.19967e-005	-0.00121656	0	
-3.4573e-005	-0.000386988	0	
-2.28343e-005	-0.0012152	0	
-4.46015e-005	-0.0003857	0	
-4.20236e-007	-0.00116363	0	
5.03091e-005	-0.000213488	0	
-2.17275e-006	-0.00116121	0	
4.86014e-005	-0.000219341	0	
-3.90206e-006	-0.00115867	0	
4.68705e-005	-0.000225066	0	
-5.60809e-006	-0.00115601	0	
4.51166e-005	-0.000230684	0	
-7.28508e-006	-0.00115322	0	
4.33648e-005	-0.000236357	0	
-6.41292e-006	-0.00115229	0	
4.24783e-005	-0.000249112	0	
-3.25917e-006	-0.00115373	0	
4.12776e-005	-0.000261454	0	
-1.25879e-007	-0.00115589	0	
3.9798e-005	-0.000273411	0	
2.98686e-006	-0.00115871	0	
3.80642e-005	-0.000285031	0	
6.05727e-006	-0.00116213	0	
3.60707e-005	-0.000296347	0	
9.07903e-006	-0.0011661	0	
3.38358e-005	-0.000307382	0	
1.2051e-005	-0.0011706	0	
3.13875e-005	-0.000318149	0	
1.49867e-005	-0.00117558	0	
2.87867e-005	-0.000328646	0	
1.79071e-005	-0.001181	0	
2.61213e-005	-0.000338842	0	
2.08586e-005	-0.00118687	0	
2.34457e-005	-0.000348701	0	
2.38919e-005	-0.00119317	0	
2.07019e-005	-0.000358336	0	
2.68925e-005	-0.00119986	0	
1.75644e-005	-0.000368103	0	
2.94665e-005	-0.00120659	0	
1.46784e-005	-0.000377689	0	
3.08995e-005	-0.0012128	0	
9.19963e-006	-0.000380336	0	
2.45747e-005	-0.00121189	0	
2.83846e-006	-0.00038262	0	
1.74123e-005	-0.00121097	0	
-4.19434e-006	-0.000383765	0	
9.78257e-006	-0.00121091	0	
-1.21603e-005	-0.000384024	0	
1.12104e-006	-0.00121121	0	
-2.11631e-005	-0.000383619	0	
-8.63175e-006	-0.00121094	0	
-3.09289e-005	-0.000382676	0	
-1.93175e-005	-0.00120979	0	
-4.10236e-005	-0.000381517	0	
-3.07357e-005	-0.00120791	0	
5.53561e-005	-0.000209656	0	
-1.34654e-006	-0.0011615	0	
5.35186e-005	-0.000215554	0	
-3.23263e-006	-0.00115905	0	
5.16559e-005	-0.000221312	0	
-5.09355e-006	-0.00115648	0	
4.97682e-005	-0.000226953	0	
-6.92939e-006	-0.00115378	0	
4.78509e-005	-0.000232484	0	
-8.61121e-006	-0.00115104	0	
4.64716e-005	-0.000241719	0	
-5.23329e-006	-0.00115217	0	
4.5315e-005	-0.000254098	0	
-1.8865e-006	-0.00115402	0	
4.38473e-005	-0.000266075	0	
1.44379e-006	-0.00115654	0	
4.2095e-005	-0.000277699	0	
4.75704e-006	-0.00115967	0	
4.00706e-005	-0.000288998	0	
8.02776e-006	-0.00116336	0	
3.77694e-005	-0.000300002	0	
1.12476e-005	-0.00116756	0	
3.52218e-005	-0.000310752	0	
1.44107e-005	-0.00117223	0	
3.24685e-005	-0.000321245	0	
1.75407e-005	-0.00117735	0	
2.95905e-005	-0.000331466	0	
2.06411e-005	-0.00118289	0	
2.667e-005	-0.000341347	0	
2.37651e-005	-0.00118883	0	
2.37987e-005	-0.000350821	0	
2.70017e-005	-0.00119517	0	
2.08301e-005	-0.000360176	0	
3.00071e-005	-0.00120173	0	
1.71893e-005	-0.000370202	0	
3.20791e-005	-0.00120775	0	