# vtk DataFile Version 4.1
vtk output
ASCII
DATASET UNSTRUCTURED_GRID

POINTS	7701	float
0	0	0	
0	1	0	
0	2	0	
0	3	0	
0	4	0	
0	5	0	
0	6	0	
0	7	0	
0	8	0	
0	9	0	
0	10	0	
0	11	0	
0	12	0	
0	13	0	
0	14	0	
0	15	0	
0	16	0	
0	17	0	
0	18	0	
0	19	0	
0	20	0	
0	21	0	
0	22	0	
0	23	0	
0	24	0	
0	25	0	
0	26	0	
0	27	0	
0	28	0	
0	29	0	
0	30	0	
0	31	0	
0	32	0	
0	33	0	
0	34	0	
0	35	0	
0	36	0	
0	37	0	
0	38	0	
0	39	0	
0	40	0	
0	41	0	
0	42	0	
0	43	0	
0	44	0	
0	45	0	
0	46	0	
0	47	0	
0	48	0	
0	49	0	
0	50	0	
1	0	0	
1	1	0	
1	2	0	
1	3	0	
1	4	0	
1	5	0	
1	6	0	
1	7	0	
1	8	0	
1	9	0	
1	10	0	
1	11	0	
1	12	0	
1	13	0	
1	14	0	
1	15	0	
1	16	0	
1	17	0	
1	18	0	
1	19	0	
1	20	0	
1	21	0	
1	22	0	
1	23	0	
1	24	0	
1	25	0	
1	26	0	
1	27	0	
1	28	0	
1	29	0	
1	30	0	
1	31	0	
1	32	0	
1	33	0	
1	34	0	
1	35	0	
1	36	0	
1	37	0	
1	38	0	
1	39	0	
1	40	0	
1	41	0	
1	42	0	
1	43	0	
1	44	0	
1	45	0	
1	46	0	
1	47	0	
1	48	0	
1	49	0	
1	50	0	
2	0	0	
2	1	0	
2	2	0	
2	3	0	
2	4	0	
2	5	0	
2	6	0	
2	7	0	
2	8	0	
2	9	0	
2	10	0	
2	11	0	
2	12	0	
2	13	0	
2	14	0	
2	15	0	
2	16	0	
2	17	0	
2	18	0	
2	19	0	
2	20	0	
2	21	0	
2	22	0	
2	23	0	
2	24	0	
2	25	0	
2	26	0	
2	27	0	
2	28	0	
2	29	0	
2	30	0	
2	31	0	
2	32	0	
2	33	0	
2	34	0	
2	35	0	
2	36	0	
2	37	0	
2	38	0	
2	39	0	
2	40	0	
2	41	0	
2	42	0	
2	43	0	
2	44	0	
2	45	0	
2	46	0	
2	47	0	
2	48	0	
2	49	0	
2	50	0	
3	0	0	
3	1	0	
3	2	0	
3	3	0	
3	4	0	
3	5	0	
3	6	0	
3	7	0	
3	8	0	
3	9	0	
3	10	0	
3	11	0	
3	12	0	
3	13	0	
3	14	0	
3	15	0	
3	16	0	
3	17	0	
3	18	0	
3	19	0	
3	20	0	
3	21	0	
3	22	0	
3	23	0	
3	24	0	
3	25	0	
3	26	0	
3	27	0	
3	28	0	
3	29	0	
3	30	0	
3	31	0	
3	32	0	
3	33	0	
3	34	0	
3	35	0	
3	36	0	
3	37	0	
3	38	0	
3	39	0	
3	40	0	
3	41	0	
3	42	0	
3	43	0	
3	44	0	
3	45	0	
3	46	0	
3	47	0	
3	48	0	
3	49	0	
3	50	0	
4	0	0	
4	1	0	
4	2	0	
4	3	0	
4	4	0	
4	5	0	
4	6	0	
4	7	0	
4	8	0	
4	9	0	
4	10	0	
4	11	0	
4	12	0	
4	13	0	
4	14	0	
4	15	0	
4	16	0	
4	17	0	
4	18	0	
4	19	0	
4	20	0	
4	21	0	
4	22	0	
4	23	0	
4	24	0	
4	25	0	
4	26	0	
4	27	0	
4	28	0	
4	29	0	
4	30	0	
4	31	0	
4	32	0	
4	33	0	
4	34	0	
4	35	0	
4	36	0	
4	37	0	
4	38	0	
4	39	0	
4	40	0	
4	41	0	
4	42	0	
4	43	0	
4	44	0	
4	45	0	
4	46	0	
4	47	0	
4	48	0	
4	49	0	
4	50	0	
5	0	0	
5	1	0	
5	2	0	
5	3	0	
5	4	0	
5	5	0	
5	6	0	
5	7	0	
5	8	0	
5	9	0	
5	10	0	
5	11	0	
5	12	0	
5	13	0	
5	14	0	
5	15	0	
5	16	0	
5	17	0	
5	18	0	
5	19	0	
5	20	0	
5	21	0	
5	22	0	
5	23	0	
5	24	0	
5	25	0	
5	26	0	
5	27	0	
5	28	0	
5	29	0	
5	30	0	
5	31	0	
5	32	0	
5	33	0	
5	34	0	
5	35	0	
5	36	0	
5	37	0	
5	38	0	
5	39	0	
5	40	0	
5	41	0	
5	42	0	
5	43	0	
5	44	0	
5	45	0	
5	46	0	
5	47	0	
5	48	0	
5	49	0	
5	50	0	
6	0	0	
6	1	0	
6	2	0	
6	3	0	
6	4	0	
6	5	0	
6	6	0	
6	7	0	
6	8	0	
6	9	0	
6	10	0	
6	11	0	
6	12	0	
6	13	0	
6	14	0	
6	15	0	
6	16	0	
6	17	0	
6	18	0	
6	19	0	
6	20	0	
6	21	0	
6	22	0	
6	23	0	
6	24	0	
6	25	0	
6	26	0	
6	27	0	
6	28	0	
6	29	0	
6	30	0	
6	31	0	
6	32	0	
6	33	0	
6	34	0	
6	35	0	
6	36	0	
6	37	0	
6	38	0	
6	39	0	
6	40	0	
6	41	0	
6	42	0	
6	43	0	
6	44	0	
6	45	0	
6	46	0	
6	47	0	
6	48	0	
6	49	0	
6	50	0	
7	0	0	
7	1	0	
7	2	0	
7	3	0	
7	4	0	
7	5	0	
7	6	0	
7	7	0	
7	8	0	
7	9	0	
7	10	0	
7	11	0	
7	12	0	
7	13	0	
7	14	0	
7	15	0	
7	16	0	
7	17	0	
7	18	0	
7	19	0	
7	20	0	
7	21	0	
7	22	0	
7	23	0	
7	24	0	
7	25	0	
7	26	0	
7	27	0	
7	28	0	
7	29	0	
7	30	0	
7	31	0	
7	32	0	
7	33	0	
7	34	0	
7	35	0	
7	36	0	
7	37	0	
7	38	0	
7	39	0	
7	40	0	
7	41	0	
7	42	0	
7	43	0	
7	44	0	
7	45	0	
7	46	0	
7	47	0	
7	48	0	
7	49	0	
7	50	0	
8	0	0	
8	1	0	
8	2	0	
8	3	0	
8	4	0	
8	5	0	
8	6	0	
8	7	0	
8	8	0	
8	9	0	
8	10	0	
8	11	0	
8	12	0	
8	13	0	
8	14	0	
8	15	0	
8	16	0	
8	17	0	
8	18	0	
8	19	0	
8	20	0	
8	21	0	
8	22	0	
8	23	0	
8	24	0	
8	25	0	
8	26	0	
8	27	0	
8	28	0	
8	29	0	
8	30	0	
8	31	0	
8	32	0	
8	33	0	
8	34	0	
8	35	0	
8	36	0	
8	37	0	
8	38	0	
8	39	0	
8	40	0	
8	41	0	
8	42	0	
8	43	0	
8	44	0	
8	45	0	
8	46	0	
8	47	0	
8	48	0	
8	49	0	
8	50	0	
9	0	0	
9	1	0	
9	2	0	
9	3	0	
9	4	0	
9	5	0	
9	6	0	
9	7	0	
9	8	0	
9	9	0	
9	10	0	
9	11	0	
9	12	0	
9	13	0	
9	14	0	
9	15	0	
9	16	0	
9	17	0	
9	18	0	
9	19	0	
9	20	0	
9	21	0	
9	22	0	
9	23	0	
9	24	0	
9	25	0	
9	26	0	
9	27	0	
9	28	0	
9	29	0	
9	30	0	
9	31	0	
9	32	0	
9	33	0	
9	34	0	
9	35	0	
9	36	0	
9	37	0	
9	38	0	
9	39	0	
9	40	0	
9	41	0	
9	42	0	
9	43	0	
9	44	0	
9	45	0	
9	46	0	
9	47	0	
9	48	0	
9	49	0	
9	50	0	
10	0	0	
10	1	0	
10	2	0	
10	3	0	
10	4	0	
10	5	0	
10	6	0	
10	7	0	
10	8	0	
10	9	0	
10	10	0	
10	11	0	
10	12	0	
10	13	0	
10	14	0	
10	15	0	
10	16	0	
10	17	0	
10	18	0	
10	19	0	
10	20	0	
10	21	0	
10	22	0	
10	23	0	
10	24	0	
10	25	0	
10	26	0	
10	27	0	
10	28	0	
10	29	0	
10	30	0	
10	31	0	
10	32	0	
10	33	0	
10	34	0	
10	35	0	
10	36	0	
10	37	0	
10	38	0	
10	39	0	
10	40	0	
10	41	0	
10	42	0	
10	43	0	
10	44	0	
10	45	0	
10	46	0	
10	47	0	
10	48	0	
10	49	0	
10	50	0	
11	0	0	
11	1	0	
11	2	0	
11	3	0	
11	4	0	
11	5	0	
11	6	0	
11	7	0	
11	8	0	
11	9	0	
11	10	0	
11	11	0	
11	12	0	
11	13	0	
11	14	0	
11	15	0	
11	16	0	
11	17	0	
11	18	0	
11	19	0	
11	20	0	
11	21	0	
11	22	0	
11	23	0	
11	24	0	
11	25	0	
11	26	0	
11	27	0	
11	28	0	
11	29	0	
11	30	0	
11	31	0	
11	32	0	
11	33	0	
11	34	0	
11	35	0	
11	36	0	
11	37	0	
11	38	0	
11	39	0	
11	40	0	
11	41	0	
11	42	0	
11	43	0	
11	44	0	
11	45	0	
11	46	0	
11	47	0	
11	48	0	
11	49	0	
11	50	0	
12	0	0	
12	1	0	
12	2	0	
12	3	0	
12	4	0	
12	5	0	
12	6	0	
12	7	0	
12	8	0	
12	9	0	
12	10	0	
12	11	0	
12	12	0	
12	13	0	
12	14	0	
12	15	0	
12	16	0	
12	17	0	
12	18	0	
12	19	0	
12	20	0	
12	21	0	
12	22	0	
12	23	0	
12	24	0	
12	25	0	
12	26	0	
12	27	0	
12	28	0	
12	29	0	
12	30	0	
12	31	0	
12	32	0	
12	33	0	
12	34	0	
12	35	0	
12	36	0	
12	37	0	
12	38	0	
12	39	0	
12	40	0	
12	41	0	
12	42	0	
12	43	0	
12	44	0	
12	45	0	
12	46	0	
12	47	0	
12	48	0	
12	49	0	
12	50	0	
13	0	0	
13	1	0	
13	2	0	
13	3	0	
13	4	0	
13	5	0	
13	6	0	
13	7	0	
13	8	0	
13	9	0	
13	10	0	
13	11	0	
13	12	0	
13	13	0	
13	14	0	
13	15	0	
13	16	0	
13	17	0	
13	18	0	
13	19	0	
13	20	0	
13	21	0	
13	22	0	
13	23	0	
13	24	0	
13	25	0	
13	26	0	
13	27	0	
13	28	0	
13	29	0	
13	30	0	
13	31	0	
13	32	0	
13	33	0	
13	34	0	
13	35	0	
13	36	0	
13	37	0	
13	38	0	
13	39	0	
13	40	0	
13	41	0	
13	42	0	
13	43	0	
13	44	0	
13	45	0	
13	46	0	
13	47	0	
13	48	0	
13	49	0	
13	50	0	
14	0	0	
14	1	0	
14	2	0	
14	3	0	
14	4	0	
14	5	0	
14	6	0	
14	7	0	
14	8	0	
14	9	0	
14	10	0	
14	11	0	
14	12	0	
14	13	0	
14	14	0	
14	15	0	
14	16	0	
14	17	0	
14	18	0	
14	19	0	
14	20	0	
14	21	0	
14	22	0	
14	23	0	
14	24	0	
14	25	0	
14	26	0	
14	27	0	
14	28	0	
14	29	0	
14	30	0	
14	31	0	
14	32	0	
14	33	0	
14	34	0	
14	35	0	
14	36	0	
14	37	0	
14	38	0	
14	39	0	
14	40	0	
14	41	0	
14	42	0	
14	43	0	
14	44	0	
14	45	0	
14	46	0	
14	47	0	
14	48	0	
14	49	0	
14	50	0	
15	0	0	
15	1	0	
15	2	0	
15	3	0	
15	4	0	
15	5	0	
15	6	0	
15	7	0	
15	8	0	
15	9	0	
15	10	0	
15	11	0	
15	12	0	
15	13	0	
15	14	0	
15	15	0	
15	16	0	
15	17	0	
15	18	0	
15	19	0	
15	20	0	
15	21	0	
15	22	0	
15	23	0	
15	24	0	
15	25	0	
15	26	0	
15	27	0	
15	28	0	
15	29	0	
15	30	0	
15	31	0	
15	32	0	
15	33	0	
15	34	0	
15	35	0	
15	36	0	
15	37	0	
15	38	0	
15	39	0	
15	40	0	
15	41	0	
15	42	0	
15	43	0	
15	44	0	
15	45	0	
15	46	0	
15	47	0	
15	48	0	
15	49	0	
15	50	0	
16	0	0	
16	1	0	
16	2	0	
16	3	0	
16	4	0	
16	5	0	
16	6	0	
16	7	0	
16	8	0	
16	9	0	
16	10	0	
16	11	0	
16	12	0	
16	13	0	
16	14	0	
16	15	0	
16	16	0	
16	17	0	
16	18	0	
16	19	0	
16	20	0	
16	21	0	
16	22	0	
16	23	0	
16	24	0	
16	25	0	
16	26	0	
16	27	0	
16	28	0	
16	29	0	
16	30	0	
16	31	0	
16	32	0	
16	33	0	
16	34	0	
16	35	0	
16	36	0	
16	37	0	
16	38	0	
16	39	0	
16	40	0	
16	41	0	
16	42	0	
16	43	0	
16	44	0	
16	45	0	
16	46	0	
16	47	0	
16	48	0	
16	49	0	
16	50	0	
17	0	0	
17	1	0	
17	2	0	
17	3	0	
17	4	0	
17	5	0	
17	6	0	
17	7	0	
17	8	0	
17	9	0	
17	10	0	
17	11	0	
17	12	0	
17	13	0	
17	14	0	
17	15	0	
17	16	0	
17	17	0	
17	18	0	
17	19	0	
17	20	0	
17	21	0	
17	22	0	
17	23	0	
17	24	0	
17	25	0	
17	26	0	
17	27	0	
17	28	0	
17	29	0	
17	30	0	
17	31	0	
17	32	0	
17	33	0	
17	34	0	
17	35	0	
17	36	0	
17	37	0	
17	38	0	
17	39	0	
17	40	0	
17	41	0	
17	42	0	
17	43	0	
17	44	0	
17	45	0	
17	46	0	
17	47	0	
17	48	0	
17	49	0	
17	50	0	
18	0	0	
18	1	0	
18	2	0	
18	3	0	
18	4	0	
18	5	0	
18	6	0	
18	7	0	
18	8	0	
18	9	0	
18	10	0	
18	11	0	
18	12	0	
18	13	0	
18	14	0	
18	15	0	
18	16	0	
18	17	0	
18	18	0	
18	19	0	
18	20	0	
18	21	0	
18	22	0	
18	23	0	
18	24	0	
18	25	0	
18	26	0	
18	27	0	
18	28	0	
18	29	0	
18	30	0	
18	31	0	
18	32	0	
18	33	0	
18	34	0	
18	35	0	
18	36	0	
18	37	0	
18	38	0	
18	39	0	
18	40	0	
18	41	0	
18	42	0	
18	43	0	
18	44	0	
18	45	0	
18	46	0	
18	47	0	
18	48	0	
18	49	0	
18	50	0	
19	0	0	
19	1	0	
19	2	0	
19	3	0	
19	4	0	
19	5	0	
19	6	0	
19	7	0	
19	8	0	
19	9	0	
19	10	0	
19	11	0	
19	12	0	
19	13	0	
19	14	0	
19	15	0	
19	16	0	
19	17	0	
19	18	0	
19	19	0	
19	20	0	
19	21	0	
19	22	0	
19	23	0	
19	24	0	
19	25	0	
19	26	0	
19	27	0	
19	28	0	
19	29	0	
19	30	0	
19	31	0	
19	32	0	
19	33	0	
19	34	0	
19	35	0	
19	36	0	
19	37	0	
19	38	0	
19	39	0	
19	40	0	
19	41	0	
19	42	0	
19	43	0	
19	44	0	
19	45	0	
19	46	0	
19	47	0	
19	48	0	
19	49	0	
19	50	0	
20	0	0	
20	1	0	
20	2	0	
20	3	0	
20	4	0	
20	5	0	
20	6	0	
20	7	0	
20	8	0	
20	9	0	
20	10	0	
20	11	0	
20	12	0	
20	13	0	
20	14	0	
20	15	0	
20	16	0	
20	17	0	
20	18	0	
20	19	0	
20	20	0	
20	21	0	
20	22	0	
20	23	0	
20	24	0	
20	25	0	
20	26	0	
20	27	0	
20	28	0	
20	29	0	
20	30	0	
20	31	0	
20	32	0	
20	33	0	
20	34	0	
20	35	0	
20	36	0	
20	37	0	
20	38	0	
20	39	0	
20	40	0	
20	41	0	
20	42	0	
20	43	0	
20	44	0	
20	45	0	
20	46	0	
20	47	0	
20	48	0	
20	49	0	
20	50	0	
21	0	0	
21	1	0	
21	2	0	
21	3	0	
21	4	0	
21	5	0	
21	6	0	
21	7	0	
21	8	0	
21	9	0	
21	10	0	
21	11	0	
21	12	0	
21	13	0	
21	14	0	
21	15	0	
21	16	0	
21	17	0	
21	18	0	
21	19	0	
21	20	0	
21	21	0	
21	22	0	
21	23	0	
21	24	0	
21	25	0	
21	26	0	
21	27	0	
21	28	0	
21	29	0	
21	30	0	
21	31	0	
21	32	0	
21	33	0	
21	34	0	
21	35	0	
21	36	0	
21	37	0	
21	38	0	
21	39	0	
21	40	0	
21	41	0	
21	42	0	
21	43	0	
21	44	0	
21	45	0	
21	46	0	
21	47	0	
21	48	0	
21	49	0	
21	50	0	
22	0	0	
22	1	0	
22	2	0	
22	3	0	
22	4	0	
22	5	0	
22	6	0	
22	7	0	
22	8	0	
22	9	0	
22	10	0	
22	11	0	
22	12	0	
22	13	0	
22	14	0	
22	15	0	
22	16	0	
22	17	0	
22	18	0	
22	19	0	
22	20	0	
22	21	0	
22	22	0	
22	23	0	
22	24	0	
22	25	0	
22	26	0	
22	27	0	
22	28	0	
22	29	0	
22	30	0	
22	31	0	
22	32	0	
22	33	0	
22	34	0	
22	35	0	
22	36	0	
22	37	0	
22	38	0	
22	39	0	
22	40	0	
22	41	0	
22	42	0	
22	43	0	
22	44	0	
22	45	0	
22	46	0	
22	47	0	
22	48	0	
22	49	0	
22	50	0	
23	0	0	
23	1	0	
23	2	0	
23	3	0	
23	4	0	
23	5	0	
23	6	0	
23	7	0	
23	8	0	
23	9	0	
23	10	0	
[...]
POINT_DATA	7701
VECTORS d float
2.71382e-016	-0.00124043	0	
2.67248e-016	-0.000229559	0	
2.5631e-016	-0.00123752	0	
2.48353e-016	-0.00023599	0	
2.36853e-016	-0.0012345	0	
2.28633e-016	-0.000242288	0	
2.18304e-016	-0.00123134	0	
2.13082e-016	-0.000248466	0	
2.09111e-016	-0.00122805	0	
2.11469e-016	-0.0002546	0	
1.51804e-016	-0.00122497	0	
-7.28732e-017	-0.000265989	0	
8.68457e-017	-0.00122397	0	
-7.1346e-017	-0.000280787	0	
6.0192e-017	-0.00122446	0	
-6.12258e-017	-0.000294962	0	
6.92251e-017	-0.00122608	0	
-2.51977e-017	-0.000308567	0	
1.06532e-016	-0.00122865	0	
-1.33196e-018	-0.000321698	0	
9.83661e-017	-0.00123202	0	
-3.31506e-017	-0.000334488	0	
7.38992e-017	-0.00123613	0	
-3.40696e-017	-0.000346983	0	
1.10997e-016	-0.00124103	0	
-4.56973e-018	-0.000359124	0	
1.21178e-016	-0.00124674	0	
-2.66771e-017	-0.000370935	0	
9.39675e-017	-0.00125333	0	
-3.67539e-017	-0.000382491	0	
1.066e-016	-0.00126068	0	
-3.7921e-017	-0.000393843	0	
1.11582e-016	-0.0012687	0	
-5.78912e-017	-0.000405076	0	
1.25529e-016	-0.00127741	0	
-4.23067e-017	-0.00041611	0	
1.48955e-016	-0.001287	0	
-4.77693e-017	-0.000426749	0	
1.45949e-016	-0.00129746	0	
-5.59045e-017	-0.000436907	0	
2.40589e-016	-0.00130856	0	
1.67824e-016	-0.00044589	0	
7.05348e-016	-0.00131932	0	
3.13874e-016	-0.000452819	0	
1.94474e-016	-0.0013261	0	
-6.19032e-017	-0.000452431	0	
-9.37607e-017	-0.00133212	0	
-3.13631e-016	-0.000445975	0	
-3.17759e-016	-0.00133927	0	
-4.91495e-016	-0.000439917	0	
-1.21346e-015	-0.00136141	0	
4.5402e-006	-0.000226248	0	
-2.63629e-007	-0.00123895	0	
4.39023e-006	-0.000232756	0	
-4.18044e-007	-0.00123599	0	
4.23825e-006	-0.000239115	0	
-5.68927e-007	-0.0012329	0	
4.07913e-006	-0.000245351	0	
-7.27474e-007	-0.00122967	0	
4.05286e-006	-0.000251466	0	
-7.04295e-007	-0.00122632	0	
3.76227e-006	-0.000258303	0	
-7.81353e-007	-0.00122418	0	
3.65955e-006	-0.000273407	0	
-3.4329e-007	-0.00122405	0	
3.52732e-006	-0.000287894	0	
3.95324e-008	-0.00122512	0	
3.35148e-006	-0.000301757	0	
3.9914e-007	-0.00122723	0	
3.15595e-006	-0.000315102	0	
7.76236e-007	-0.00123021	0	
2.91183e-006	-0.000328041	0	
1.15379e-006	-0.00123395	0	
2.66294e-006	-0.000340681	0	
1.54525e-006	-0.00123845	0	
2.40093e-006	-0.000352981	0	
1.94765e-006	-0.00124376	0	
2.13405e-006	-0.00036495	0	
2.36657e-006	-0.00124992	0	
1.84505e-006	-0.000376607	0	
2.78985e-006	-0.00125688	0	
1.53691e-006	-0.000388045	0	
3.23164e-006	-0.00126457	0	
1.20547e-006	-0.00039933	0	
3.65544e-006	-0.00127293	0	
8.87858e-007	-0.000410475	0	
4.11655e-006	-0.00128207	0	
5.62898e-007	-0.000421358	0	
4.64655e-006	-0.00129215	0	
1.98911e-007	-0.000431845	0	
5.43248e-006	-0.00130325	0	
-1.8505e-007	-0.000442005	0	
8.15539e-006	-0.00131605	0	
1.88184e-006	-0.000452653	0	
8.91333e-006	-0.00132452	0	
-2.29163e-006	-0.000451662	0	
4.22262e-006	-0.00132776	0	
-5.1272e-006	-0.000447669	0	
2.43797e-006	-0.00133381	0	
-6.59784e-006	-0.00044129	0	
3.10922e-006	-0.00134326	0	
-1.17051e-005	-0.000427829	0	
-3.69694e-007	-0.00124027	0	
8.92988e-006	-0.000229413	0	
-6.8103e-007	-0.00123736	0	
8.6271e-006	-0.000235839	0	
-9.87137e-007	-0.00123435	0	
8.32107e-006	-0.000242126	0	
-1.2881e-006	-0.00123119	0	
8.00979e-006	-0.000248308	0	
-1.51789e-006	-0.0012279	0	
7.72685e-006	-0.000254296	0	
-1.89331e-006	-0.0012245	0	
7.40608e-006	-0.000265709	0	
-1.07923e-006	-0.00122387	0	
7.20111e-006	-0.000280569	0	
-3.02366e-007	-0.00122437	0	
6.89366e-006	-0.000294703	0	
4.43947e-007	-0.001226	0	
6.50108e-006	-0.000308256	0	
1.18434e-006	-0.00122855	0	
6.07258e-006	-0.000321351	0	
1.92412e-006	-0.00123192	0	
5.57641e-006	-0.000334115	0	
2.68157e-006	-0.00123603	0	
5.06078e-006	-0.000346544	0	
3.48422e-006	-0.00124093	0	
4.52778e-006	-0.000358669	0	
4.31108e-006	-0.00124665	0	
3.96357e-006	-0.000370444	0	
5.15045e-006	-0.00125321	0	
3.3802e-006	-0.000381953	0	
6.00088e-006	-0.00126054	0	
2.76821e-006	-0.000393287	0	
6.86652e-006	-0.00126854	0	
2.11354e-006	-0.000404506	0	
7.76121e-006	-0.00127725	0	
1.47778e-006	-0.000415531	0	
8.74538e-006	-0.00128689	0	
8.74493e-007	-0.0004263	0	
9.97096e-006	-0.0012978	0	
3.28635e-007	-0.000436946	0	
1.23303e-005	-0.00131051	0	
1.93763e-006	-0.000448786	0	
1.44939e-005	-0.00132082	0	
-2.74148e-006	-0.000448657	0	
8.83139e-006	-0.00132288	0	
-7.21832e-006	-0.000446511	0	
5.00405e-006	-0.00132735	0	
-1.09744e-005	-0.000440995	0	
3.21878e-006	-0.00133326	0	
-1.50201e-005	-0.000430975	0	
-4.91809e-006	-0.00133652	0	
1.36157e-005	-0.000225961	0	
-7.85042e-007	-0.00123863	0	
1.31651e-005	-0.000232459	0	
-1.24926e-006	-0.00123568	0	
1.27073e-005	-0.000238806	0	
-1.70439e-006	-0.0012326	0	
1.22499e-005	-0.00024503	0	
-2.14275e-006	-0.00122938	0	
1.1755e-005	-0.000251134	0	
-2.72609e-006	-0.00122599	0	
1.11611e-005	-0.00025792	0	
-2.14439e-006	-0.0012239	0	
1.0991e-005	-0.000272996	0	
-1.00581e-006	-0.00122384	0	
1.058e-005	-0.000287421	0	
1.21572e-007	-0.00122494	0	
1.00437e-005	-0.000301179	0	
1.21703e-006	-0.00122704	0	
9.41632e-006	-0.000314451	0	
2.31729e-006	-0.00123002	0	
8.71222e-006	-0.000327321	0	
3.45009e-006	-0.00123376	0	
7.96402e-006	-0.000339866	0	
4.61568e-006	-0.00123826	0	
7.1869e-006	-0.000352097	0	
5.82929e-006	-0.00124354	0	
6.36801e-006	-0.000363991	0	
7.07976e-006	-0.00124968	0	
5.51936e-006	-0.000375587	0	
8.33033e-006	-0.00125661	0	
4.61449e-006	-0.000386975	0	
9.59333e-006	-0.00126426	0	
3.66116e-006	-0.000398213	0	
1.09044e-005	-0.00127258	0	
2.70245e-006	-0.000409332	0	
1.2326e-005	-0.00128171	0	
1.79231e-006	-0.000420277	0	
1.39685e-005	-0.00129199	0	
1.09193e-006	-0.000430948	0	
1.63033e-005	-0.00130414	0	
1.54547e-006	-0.000442397	0	
1.93359e-005	-0.00131606	0	
-2.67629e-006	-0.000444201	0	
1.32721e-005	-0.00131771	0	
-7.51335e-006	-0.000443566	0	
8.14411e-006	-0.00132084	0	
-1.31149e-005	-0.000439281	0	
4.22198e-006	-0.00132514	0	
-1.77335e-005	-0.000432132	0	
-2.07313e-006	-0.00132859	0	
-2.39365e-005	-0.00042433	0	
-7.27088e-007	-0.00123978	0	
1.78492e-005	-0.000228975	0	
-1.35079e-006	-0.0012369	0	
1.72426e-005	-0.000235384	0	
-1.96507e-006	-0.0012339	0	
1.66287e-005	-0.000241659	0	
-2.56185e-006	-0.00123076	0	
1.60151e-005	-0.000247815	0	
-3.22534e-006	-0.00122747	0	
1.51875e-005	-0.000253836	0	
-3.67991e-006	-0.00122431	0	
1.48262e-005	-0.000265273	0	
-2.06977e-006	-0.00122356	0	
1.43815e-005	-0.000279927	0	
-5.72193e-007	-0.00122408	0	
1.37445e-005	-0.000293922	0	
9.06508e-007	-0.00122571	0	
1.29596e-005	-0.000307341	0	
2.3679e-006	-0.00122825	0	
1.20802e-005	-0.000320314	0	
3.83276e-006	-0.00123163	0	
1.11028e-005	-0.000332976	0	
5.35209e-006	-0.00123575	0	
1.00846e-005	-0.00034528	0	
6.9242e-006	-0.00124061	0	
9.02821e-006	-0.000357284	0	
8.56597e-006	-0.00124631	0	
7.92624e-006	-0.000368952	0	
1.02284e-005	-0.00125281	0	
6.76815e-006	-0.000380384	0	
1.19055e-005	-0.0012601	0	
5.53916e-006	-0.000391626	0	
1.35943e-005	-0.00126805	0	
4.28545e-006	-0.000402774	0	
1.53753e-005	-0.00127669	0	
3.04199e-006	-0.000413785	0	
1.73984e-005	-0.00128626	0	
1.96845e-006	-0.000424551	0	
1.99491e-005	-0.00129739	0	
1.43651e-006	-0.000434912	0	
2.37208e-005	-0.00130987	0	
-2.06864e-006	-0.000439173	0	
1.74994e-005	-0.00131233	0	
-7.34752e-006	-0.000439034	0	
1.18131e-005	-0.00131439	0	
-1.35853e-005	-0.00043631	0	
6.2252e-006	-0.00131763	0	
-1.91508e-005	-0.000431225	0	
1.23546e-007	-0.00132081	0	
-2.52337e-005	-0.000424584	0	
-9.46554e-006	-0.00132195	0	
2.26758e-005	-0.000225387	0	
-1.28904e-006	-0.00123799	0	
2.19237e-005	-0.000231863	0	
-2.0636e-006	-0.00123507	0	
2.11596e-005	-0.000238189	0	
-2.82424e-006	-0.00123202	0	
2.03854e-005	-0.000244392	0	
-3.57445e-006	-0.00122881	0	
1.95622e-005	-0.000250469	0	
-4.42596e-006	-0.00122549	0	
1.86917e-005	-0.000257423	0	
-3.55389e-006	-0.00122351	0	
1.82609e-005	-0.000272259	0	
-1.64776e-006	-0.00122345	0	
1.75447e-005	-0.000286456	0	
2.05947e-007	-0.00122455	0	
1.66636e-005	-0.000300057	0	
2.03863e-006	-0.00122666	0	
1.56084e-005	-0.00031316	0	
3.86438e-006	-0.00122964	0	
1.44614e-005	-0.000325873	0	
5.71011e-006	-0.00123337	0	
1.32212e-005	-0.000338266	0	
7.64032e-006	-0.00123785	0	
1.19267e-005	-0.000350347	0	
9.6378e-006	-0.00124312	0	
1.05946e-005	-0.000362101	0	
1.16862e-005	-0.0012492	0	
9.19104e-006	-0.000373556	0	
1.37652e-005	-0.00125606	0	
7.71207e-006	-0.000384806	0	
1.58243e-005	-0.00126363	0	
6.17242e-006	-0.000395933	0	
1.79402e-005	-0.00127182	0	
4.62037e-006	-0.00040695	0	
2.024e-005	-0.00128077	0	
3.21542e-006	-0.000417787	0	
2.29867e-005	-0.00129086	0	
2.02018e-006	-0.000428051	0	
2.68135e-005	-0.00130286	0	
-7.78734e-007	-0.000434467	0	
2.15603e-005	-0.00130624	0	
-6.82232e-006	-0.000433549	0	
1.55338e-005	-0.00130824	0	
-1.29103e-005	-0.000432438	0	
8.92537e-006	-0.00131048	0	
-1.92714e-005	-0.000428845	0	
2.3968e-006	-0.00131328	0	
-2.57212e-005	-0.0004236	0	
-6.07526e-006	-0.00131494	0	
-3.35075e-005	-0.00041825	0	
-1.06075e-006	-0.00123897	0	
2.67468e-005	-0.000228242	0	
-1.99782e-006	-0.00123611	0	
2.58362e-005	-0.000234624	0	
-2.92013e-006	-0.00123314	0	
2.49119e-005	-0.00024087	0	
-3.8302e-006	-0.00123003	0	
2.39678e-005	-0.000246999	0	
-4.75446e-006	-0.00122677	0	
2.29429e-005	-0.000252989	0	
-5.37899e-006	-0.00122365	0	
2.22192e-005	-0.000264399	0	
-3.09226e-006	-0.00122304	0	
2.14626e-005	-0.000278822	0	
-8.64152e-007	-0.00122358	0	
2.05005e-005	-0.000292597	0	
1.34222e-006	-0.00122522	0	
1.93117e-005	-0.000305828	0	
3.52234e-006	-0.00122779	0	
1.7998e-005	-0.000318624	0	
5.71605e-006	-0.00123115	0	
1.65581e-005	-0.000331082	0	
7.97216e-006	-0.00123525	0	
1.50476e-005	-0.000343203	0	
1.03143e-005	-0.0012401	0	
1.34765e-005	-0.000355024	0	
1.27256e-005	-0.00124575	0	
1.18514e-005	-0.00036652	0	
1.51869e-005	-0.00125217	0	
1.01513e-005	-0.000377778	0	
1.76205e-005	-0.00125933	0	
8.36675e-006	-0.000388865	0	
2.00631e-005	-0.00126714	0	
6.51041e-006	-0.000399847	0	
2.25872e-005	-0.00127554	0	
4.77173e-006	-0.000410711	0	
2.54091e-005	-0.00128475	0	
3.31138e-006	-0.000421153	0	
2.88631e-005	-0.00129544	0	
1.32016e-006	-0.000429367	0	
2.48158e-005	-0.00129972	0	
-5.05863e-006	-0.00042879	0	
1.89075e-005	-0.00130231	0	
-1.1331e-005	-0.000427943	0	
1.18728e-005	-0.00130371	0	
-1.83061e-005	-0.000425468	0	
4.96931e-006	-0.00130602	0	
-2.52956e-005	-0.000421466	0	
-3.09082e-006	-0.00130784	0	
-3.29318e-005	-0.000416739	0	
-1.35389e-005	-0.0013081	0	
3.17091e-005	-0.000224524	0	
-1.76453e-006	-0.00123703	0	
3.06544e-005	-0.000230966	0	
-2.85015e-006	-0.00123414	0	
2.95831e-005	-0.000237257	0	
-3.91927e-006	-0.00123112	0	
2.84925e-005	-0.000243424	0	
-4.97567e-006	-0.00122795	0	
2.73592e-005	-0.000249473	0	
-6.0476e-006	-0.00122466	0	
2.62573e-005	-0.000256404	0	
-4.92075e-006	-0.0012228	0	
2.54699e-005	-0.000271019	0	
-2.31149e-006	-0.00122281	0	
2.44359e-005	-0.000284984	0	
2.77361e-007	-0.00122397	0	
2.31808e-005	-0.000298345	0	
2.8265e-006	-0.00122608	0	
2.1723e-005	-0.000311235	0	
5.35734e-006	-0.00122906	0	
2.01044e-005	-0.000323745	0	
7.92705e-006	-0.0012328	0	
1.8379e-005	-0.000335917	0	
1.05924e-005	-0.00123728	0	
1.65935e-005	-0.00034776	0	
1.33561e-005	-0.00124249	0	
1.47428e-005	-0.000359296	0	
1.61953e-005	-0.00124847	0	
1.28048e-005	-0.000370547	0	
1.90083e-005	-0.00125522	0	
1.07893e-005	-0.000381611	0	
2.17919e-005	-0.00126261	0	
8.7079e-006	-0.000392543	0	
2.45585e-005	-0.00127057	0	
6.64479e-006	-0.000403376	0	
2.74174e-005	-0.00127908	0	
4.88356e-006	-0.000414023	0	
3.05671e-005	-0.00128844	0	
3.52359e-006	-0.000423492	0	
2.78204e-005	-0.00129318	0	
-2.73958e-006	-0.000423798	0	
2.16901e-005	-0.00129545	0	
-9.08532e-006	-0.000423018	0	
1.48468e-005	-0.00129719	0	
-1.65148e-005	-0.000421347	0	
7.77909e-006	-0.00129907	0	
-2.40021e-005	-0.00041842	0	
-1.59617e-007	-0.00130083	0	
-3.18441e-005	-0.00041451	0	
-9.7809e-006	-0.00130156	0	
-4.06989e-005	-0.000410627	0	
-1.36017e-006	-0.00123783	0	
3.56111e-005	-0.000227214	0	
-2.61144e-006	-0.00123501	0	
3.43953e-005	-0.000233556	0	
-3.84352e-006	-0.00123208	0	
3.31599e-005	-0.00023976	0	
-5.05728e-006	-0.00122901	0	
3.19039e-005	-0.000245851	0	
-6.25931e-006	-0.00122579	0	
3.06147e-005	-0.000251815	0	
-7.01279e-006	-0.00122272	0	
2.95617e-005	-0.000263058	0	
-4.11342e-006	-0.00122224	0	
2.84892e-005	-0.000277219	0	
-1.16929e-006	-0.00122286	0	
2.71586e-005	-0.000290734	0	
1.74862e-006	-0.00122455	0	
2.55834e-005	-0.000303722	0	
4.63828e-006	-0.00122714	0	
2.38387e-005	-0.000316277	0	
7.53394e-006	-0.0012305	0	
2.19323e-005	-0.000328489	0	
1.05019e-005	-0.0012346	0	
1.99226e-005	-0.000340371	0	
1.35822e-005	-0.00123942	0	
1.78348e-005	-0.000351914	0	
1.67727e-005	-0.00124499	0	
1.5696e-005	-0.000363181	0	
1.99793e-005	-0.00125128	0	
1.34414e-005	-0.000374204	0	
2.31452e-005	-0.00125824	0	
1.11118e-005	-0.000385071	0	
2.62129e-005	-0.0012658	0	
8.76852e-006	-0.000395829	0	
2.91927e-005	-0.00127379	0	
6.62721e-006	-0.000406563	0	
3.21157e-005	-0.00128213	0	
5.28665e-006	-0.000416946	0	
3.08853e-005	-0.00128709	0	
-4.12129e-007	-0.000418292	0	
2.45529e-005	-0.00128855	0	
-6.78151e-006	-0.000418023	0	
1.79927e-005	-0.00129061	0	
-1.42108e-005	-0.000416673	0	
1.07827e-005	-0.00129236	0	
-2.19886e-005	-0.000414647	0	
2.8805e-006	-0.00129401	0	
-3.01473e-005	-0.000411594	0	
-6.32277e-006	-0.00129497	0	
-3.89134e-005	-0.000408079	0	
-1.72349e-005	-0.00129472	0	
4.07032e-005	-0.00022337	0	
-2.20064e-006	-0.00123575	0	
3.93454e-005	-0.000229767	0	
-3.59847e-006	-0.0012329	0	
3.79658e-005	-0.000236013	0	
-4.97452e-006	-0.00122993	0	
3.65653e-005	-0.000242135	0	
-6.32748e-006	-0.0012268	0	
3.5151e-005	-0.000248138	0	
-7.65421e-006	-0.00122357	0	
3.37446e-005	-0.000254988	0	
-6.24012e-006	-0.0012218	0	
3.26295e-005	-0.000269304	0	
-2.96653e-006	-0.00122195	0	
3.12627e-005	-0.000282997	0	
3.10246e-007	-0.00122318	0	
2.96232e-005	-0.000296098	0	
3.55861e-006	-0.00122535	0	
2.77527e-005	-0.00030873	0	
6.79214e-006	-0.00122835	0	
2.56661e-005	-0.000320963	0	
1.00591e-005	-0.00123209	0	
2.34578e-005	-0.000332857	0	
1.34375e-005	-0.00123654	0	
2.11474e-005	-0.000344407	0	
1.69532e-005	-0.00124169	0	
1.8774e-005	-0.000355678	0	
2.05226e-005	-0.00124757	0	
1.62993e-005	-0.000366655	0	
2.40884e-005	-0.00125411	0	
1.37318e-005	-0.000377445	0	
2.75438e-005	-0.00126122	0	
1.11134e-005	-0.000388108	0	
3.0811e-005	-0.00126878	0	
8.56769e-006	-0.000398786	0	
3.37607e-005	-0.00127651	0	
6.6551e-006	-0.000409551	0	
3.3943e-005	-0.00128172	0	
1.58401e-006	-0.000412327	0	
2.77277e-005	-0.00128223	0	
-4.50211e-006	-0.000412858	0	
2.12484e-005	-0.001284	0	
-1.17543e-005	-0.000411795	0	
1.40251e-005	-0.00128573	0	
-1.9466e-005	-0.000410329	0	
6.10771e-006	-0.00128737	0	
-2.78515e-005	-0.000408065	0	
-2.89265e-006	-0.00128846	0	
-3.67914e-005	-0.000405116	0	
-1.32785e-005	-0.00128856	0	
-4.63653e-005	-0.000402146	0	
-1.6145e-006	-0.00123636	0	
4.44303e-005	-0.00022589	0	
-3.18038e-006	-0.00123359	0	
4.29086e-005	-0.000232182	0	
-4.72232e-006	-0.00123071	0	
4.13634e-005	-0.000238335	0	
-6.23813e-006	-0.00122769	0	
3.97969e-005	-0.000244375	0	
-7.71074e-006	-0.00122453	0	
3.82172e-005	-0.000250278	0	
-8.65461e-006	-0.00122152	0	
3.68587e-005	-0.000261272	0	
-5.12796e-006	-0.00122117	0	
3.54561e-005	-0.000275139	0	
-1.50002e-006	-0.00122195	0	
3.37709e-005	-0.000288373	0	
2.09355e-006	-0.00122371	0	
3.18118e-005	-0.00030108	0	
5.68643e-006	-0.00122634	0	
2.96025e-005	-0.000313343	0	
9.2623e-006	-0.00122973	0	
2.7224e-005	-0.000325253	0	
1.29435e-005	-0.00123383	0	
2.4682e-005	-0.000336814	0	
1.67357e-005	-0.00123861	0	
2.20677e-005	-0.000348049	0	
2.06697e-005	-0.00124408	0	
1.93534e-005	-0.000359004	0	
2.46169e-005	-0.0012502	0	
1.65553e-005	-0.000369733	0	
2.84898e-005	-0.00125688	0	
1.36498e-005	-0.000380265	0	
3.21787e-005	-0.00126404	0	
1.071e-005	-0.000390789	0	
3.55069e-005	-0.0012714	0	
8.04447e-006	-0.000401545	0	
3.69154e-005	-0.00127709	0	
3.26625e-006	-0.000405694	0	
3.08168e-005	-0.00127647	0	
-2.28892e-006	-0.000407308	0	
2.44973e-005	-0.00127757	0	
-9.27501e-006	-0.000406764	0	
1.73652e-005	-0.00127909	0	
-1.66607e-005	-0.000405704	0	
9.55098e-006	-0.0012808	0	
-2.50298e-005	-0.000404035	0	
6.67445e-007	-0.00128207	0	
-3.42162e-005	-0.000401693	0	
-9.45928e-006	-0.0012824	0	
-4.38711e-005	-0.000398988	0	
-2.07277e-005	-0.00128175	0	
4.96469e-005	-0.000221927	0	
-2.58601e-006	-0.00123415	0	
4.79857e-005	-0.000228267	0	
-4.29619e-006	-0.00123136	0	
4.62978e-005	-0.000234457	0	
-5.97916e-006	-0.00122844	0	
4.4586e-005	-0.000240523	0	
-7.63215e-006	-0.00122537	0	
4.28604e-005	-0.000246467	0	
-9.23774e-006	-0.00122218	0	
4.11495e-005	-0.000253194	0	
-7.57866e-006	-0.00122054	0	
3.97365e-005	-0.000267175	0	
-3.66206e-006	-0.00122089	0	
3.80168e-005	-0.000280547	0	
2.77274e-007	-0.00122223	0	
3.60034e-005	-0.000293331	0	
4.19885e-006	-0.00122448	0	
3.371e-005	-0.000305657	0	
8.11007e-006	-0.00122751	0	
3.11605e-005	-0.000317571	0	
1.20926e-005	-0.00123129	0	
2.84436e-005	-0.00032914	0	
1.6159e-005	-0.00123572	0	
2.55862e-005	-0.000340356	0	
2.04024e-005	-0.0012408	0	
2.26273e-005	-0.000351272	0	
2.46915e-005	-0.00124652	0	
1.95791e-005	-0.00036192	0	
2.90112e-005	-0.00125282	0	
1.63898e-005	-0.000372351	0	
3.31718e-005	-0.00125959	0	
1.30922e-005	-0.000382671	0	
3.7076e-005	-0.00126664	0	
9.68681e-006	-0.000393105	0	
3.98085e-005	-0.00127282	0	
4.90127e-006	-0.000398532	0	
3.36813e-005	-0.00127149	0	
-2.33766e-007	-0.000401287	0	
2.75942e-005	-0.00127155	0	
-6.81884e-006	-0.00040153	0	
2.0598e-005	-0.00127251	0	
-1.37443e-005	-0.000400904	0	
1.30897e-005	-0.00127421	0	
-2.17798e-005	-0.000399657	0	
4.43945e-006	-0.00127577	0	
-3.11417e-005	-0.000397842	0	
-5.57866e-006	-0.00127631	0	
-4.10831e-005	-0.000395532	0	
-1.66399e-005	-0.00127584	0	
-5.1227e-005	-0.000393131	0	
-1.81225e-006	-0.00123457	0	
5.31936e-005	-0.000224271	0	
-3.69286e-006	-0.00123186	0	
5.1366e-005	-0.000230501	0	
-5.54462e-006	-0.00122904	0	
4.951e-005	-0.000236594	0	
-7.36571e-006	-0.00122608	0	
4.76277e-005	-0.00024257	0	
-9.1505e-006	-0.00122298	0	
4.57308e-005	-0.000248402	0	
-1.02757e-005	-0.00122002	0	
4.40811e-005	-0.000259136	0	
-6.11938e-006	-0.00121992	0	
4.23693e-005	-0.00027262	0	
-1.87673e-006	-0.00122088	0	
4.03187e-005	-0.00028553	0	
2.37961e-006	-0.00122276	0	
3.79654e-005	-0.000297903	0	
6.61712e-006	-0.00122545	0	
3.53106e-005	-0.000309836	0	
1.08742e-005	-0.00122889	0	
3.24101e-005	-0.000321385	0	
1.52405e-005	-0.001233	0	
2.93189e-005	-0.000332597	0	
1.97351e-005	-0.00123774	0	
2.61356e-005	-0.000343465	0	
2.43763e-005	-0.00124309	0	
2.28302e-005	-0.000354051	0	
2.90678e-005	-0.001249	0	
1.94002e-005	-0.000364386	0	
3.36999e-005	-0.0012554	0	
1.57363e-005	-0.000374538	0	
3.81897e-005	-0.0012622	0	
1.18295e-005	-0.000384592	0	
4.21353e-005	-0.00126873	0	
6.90969e-006	-0.000391196	0	
3.62849e-005	-0.00126702	0	
1.7199e-006	-0.00039455	0	
3.03407e-005	-0.0012661	0	
-4.33134e-006	-0.000396034	0	
2.35096e-005	-0.00126622	0	
-1.08714e-005	-0.000395998	0	
1.64617e-005	-0.00126756	0	
-1.82545e-005	-0.000395074	0	
8.40073e-006	-0.00126948	0	
-2.75263e-005	-0.000393644	0	
-1.50123e-006	-0.00127036	0	
-3.79091e-005	-0.000391719	0	
-1.2549e-005	-0.00126995	0	
-4.82798e-005	-0.000389539	0	
-2.42161e-005	-0.00126891	0	
5.85291e-005	-0.000220193	0	
-2.90929e-006	-0.00123222	0	
5.65644e-005	-0.000226466	0	
-4.93169e-006	-0.0012295	0	
5.45683e-005	-0.000232589	0	
-6.92265e-006	-0.00122665	0	
5.2541e-005	-0.000238588	0	
-8.88241e-006	-0.00122365	0	
5.04827e-005	-0.000244462	0	
-1.08095e-005	-0.00122051	0	
4.84722e-005	-0.000251062	0	
-8.87359e-006	-0.00121906	0	
4.67825e-005	-0.000264644	0	
-4.34839e-006	-0.00121963	0	
4.47363e-005	-0.000277629	0	
2.12672e-007	-0.00122114	0	
4.23396e-005	-0.000290083	0	
4.77111e-006	-0.00122352	0	
3.96132e-005	-0.000302044	0	
9.34236e-006	-0.00122662	0	
3.65872e-005	-0.000313591	0	
1.39667e-005	-0.00123044	0	
3.3314e-005	-0.000324764	0	
1.87489e-005	-0.00123487	0	
2.98727e-005	-0.000335605	0	
2.36473e-005	-0.00123988	0	
2.63187e-005	-0.000346139	0	
2.86757e-005	-0.00124542	0	
2.26392e-005	-0.000356394	0	
3.37413e-005	-0.00125149	0	
1.87282e-005	-0.000366401	0	
3.87235e-005	-0.00125801	0	
1.44414e-005	-0.000376186	0	
4.3599e-005	-0.00126476	0	
9.41649e-006	-0.000383876	0	