# vtk DataFile Version 4.1
vtk output
ASCII
DATASET UNSTRUCTURED_GRID

POINTS	30401	float
0	0	0	
0	1	0	
0	2	0	
0	3	0	
0	4	0	
0	5	0	
0	6	0	
0	7	0	
0	8	0	
0	9	0	
0	10	0	
0	11	0	
0	12	0	
0	13	0	
0	14	0	
0	15	0	
0	16	0	
0	17	0	
0	18	0	
0	19	0	
0	20	0	
0	21	0	
0	22	0	
0	23	0	
0	24	0	
0	25	0	
0	26	0	
0	27	0	
0	28	0	
0	29	0	
0	30	0	
0	31	0	
0	32	0	
0	33	0	
0	34	0	
0	35	0	
0	36	0	
0	37	0	
0	38	0	
0	39	0	
0	40	0	
0	41	0	
0	42	0	
0	43	0	
0	44	0	
0	45	0	
0	46	0	
0	47	0	
0	48	0	
0	49	0	
0	50	0	
0	51	0	
0	52	0	
0	53	0	
0	54	0	
0	55	0	
0	56	0	
0	57	0	
0	58	0	
0	59	0	
0	60	0	
0	61	0	
0	62	0	
0	63	0	
0	64	0	
0	65	0	
0	66	0	
0	67	0	
0	68	0	
0	69	0	
0	70	0	
0	71	0	
0	72	0	
0	73	0	
0	74	0	
0	75	0	
0	76	0	
0	77	0	
0	78	0	
0	79	0	
0	80	0	
0	81	0	
0	82	0	
0	83	0	
0	84	0	
0	85	0	
0	86	0	
0	87	0	
0	88	0	
0	89	0	
0	90	0	
0	91	0	
0	92	0	
0	93	0	
0	94	0	
0	95	0	
0	96	0	
0	97	0	
0	98	0	
0	99	0	
0	100	0	
1	0	0	
1	1	0	
1	2	0	
1	3	0	
1	4	0	
1	5	0	
1	6	0	
1	7	0	
1	8	0	
1	9	0	
1	10	0	
1	11	0	
1	12	0	
1	13	0	
1	14	0	
1	15	0	
1	16	0	
1	17	0	
1	18	0	
1	19	0	
1	20	0	
1	21	0	
1	22	0	
1	23	0	
1	24	0	
1	25	0	
1	26	0	
1	27	0	
1	28	0	
1	29	0	
1	30	0	
1	31	0	
1	32	0	
1	33	0	
1	34	0	
1	35	0	
1	36	0	
1	37	0	
1	38	0	
1	39	0	
1	40	0	
1	41	0	
1	42	0	
1	43	0	
1	44	0	
1	45	0	
1	46	0	
1	47	0	
1	48	0	
1	49	0	
1	50	0	
1	51	0	
1	52	0	
1	53	0	
1	54	0	
1	55	0	
1	56	0	
1	57	0	
1	58	0	
1	59	0	
1	60	0	
1	61	0	
1	62	0	
1	63	0	
1	64	0	
1	65	0	
1	66	0	
1	67	0	
1	68	0	
1	69	0	
1	70	0	
1	71	0	
1	72	0	
1	73	0	
1	74	0	
1	75	0	
1	76	0	
1	77	0	
1	78	0	
1	79	0	
1	80	0	
1	81	0	
1	82	0	
1	83	0	
1	84	0	
1	85	0	
1	86	0	
1	87	0	
1	88	0	
1	89	0	
1	90	0	
1	91	0	
1	92	0	
1	93	0	
1	94	0	
1	95	0	
1	96	0	
1	97	0	
1	98	0	
1	99	0	
1	100	0	
2	0	0	
2	1	0	
2	2	0	
2	3	0	
2	4	0	
2	5	0	
2	6	0	
2	7	0	
2	8	0	
2	9	0	
2	10	0	
2	11	0	
2	12	0	
2	13	0	
2	14	0	
2	15	0	
2	16	0	
2	17	0	
2	18	0	
2	19	0	
2	20	0	
2	21	0	
2	22	0	
2	23	0	
2	24	0	
2	25	0	
2	26	0	
2	27	0	
2	28	0	
2	29	0	
2	30	0	
2	31	0	
2	32	0	
2	33	0	
2	34	0	
2	35	0	
2	36	0	
2	37	0	
2	38	0	
2	39	0	
2	40	0	
2	41	0	
2	42	0	
2	43	0	
2	44	0	
2	45	0	
2	46	0	
2	47	0	
2	48	0	
2	49	0	
2	50	0	
2	51	0	
2	52	0	
2	53	0	
2	54	0	
2	55	0	
2	56	0	
2	57	0	
2	58	0	
2	59	0	
2	60	0	
2	61	0	
2	62	0	
2	63	0	
2	64	0	
2	65	0	
2	66	0	
2	67	0	
2	68	0	
2	69	0	
2	70	0	
2	71	0	
2	72	0	
2	73	0	
2	74	0	
2	75	0	
2	76	0	
2	77	0	
2	78	0	
2	79	0	
2	80	0	
2	81	0	
2	82	0	
2	83	0	
2	84	0	
2	85	0	
2	86	0	
2	87	0	
2	88	0	
2	89	0	
2	90	0	
2	91	0	
2	92	0	
2	93	0	
2	94	0	
2	95	0	
2	96	0	
2	97	0	
2	98	0	
2	99	0	
2	100	0	
3	0	0	
3	1	0	
3	2	0	
3	3	0	
3	4	0	
3	5	0	
3	6	0	
3	7	0	
3	8	0	
3	9	0	
3	10	0	
3	11	0	
3	12	0	
3	13	0	
3	14	0	
3	15	0	
3	16	0	
3	17	0	
3	18	0	
3	19	0	
3	20	0	
3	21	0	
3	22	0	
3	23	0	
3	24	0	
3	25	0	
3	26	0	
3	27	0	
3	28	0	
3	29	0	
3	30	0	
3	31	0	
3	32	0	
3	33	0	
3	34	0	
3	35	0	
3	36	0	
3	37	0	
3	38	0	
3	39	0	
3	40	0	
3	41	0	
3	42	0	
3	43	0	
3	44	0	
3	45	0	
3	46	0	
3	47	0	
3	48	0	
3	49	0	
3	50	0	
3	51	0	
3	52	0	
3	53	0	
3	54	0	
3	55	0	
3	56	0	
3	57	0	
3	58	0	
3	59	0	
3	60	0	
3	61	0	
3	62	0	
3	63	0	
3	64	0	
3	65	0	
3	66	0	
3	67	0	
3	68	0	
3	69	0	
3	70	0	
3	71	0	
3	72	0	
3	73	0	
3	74	0	
3	75	0	
3	76	0	
3	77	0	
3	78	0	
3	79	0	
3	80	0	
3	81	0	
3	82	0	
3	83	0	
3	84	0	
3	85	0	
3	86	0	
3	87	0	
3	88	0	
3	89	0	
3	90	0	
3	91	0	
3	92	0	
3	93	0	
3	94	0	
3	95	0	
3	96	0	
3	97	0	
3	98	0	
3	99	0	
3	100	0	
4	0	0	
4	1	0	
4	2	0	
4	3	0	
4	4	0	
4	5	0	
4	6	0	
4	7	0	
4	8	0	
4	9	0	
4	10	0	
4	11	0	
4	12	0	
4	13	0	
4	14	0	
4	15	0	
4	16	0	
4	17	0	
4	18	0	
4	19	0	
4	20	0	
4	21	0	
4	22	0	
4	23	0	
4	24	0	
4	25	0	
4	26	0	
4	27	0	
4	28	0	
4	29	0	
4	30	0	
4	31	0	
4	32	0	
4	33	0	
4	34	0	
4	35	0	
4	36	0	
4	37	0	
4	38	0	
4	39	0	
4	40	0	
4	41	0	
4	42	0	
4	43	0	
4	44	0	
4	45	0	
4	46	0	
4	47	0	
4	48	0	
4	49	0	
4	50	0	
4	51	0	
4	52	0	
4	53	0	
4	54	0	
4	55	0	
4	56	0	
4	57	0	
4	58	0	
4	59	0	
4	60	0	
4	61	0	
4	62	0	
4	63	0	
4	64	0	
4	65	0	
4	66	0	
4	67	0	
4	68	0	
4	69	0	
4	70	0	
4	71	0	
4	72	0	
4	73	0	
4	74	0	
4	75	0	
4	76	0	
4	77	0	
4	78	0	
4	79	0	
4	80	0	
4	81	0	
4	82	0	
4	83	0	
4	84	0	
4	85	0	
4	86	0	
4	87	0	
4	88	0	
4	89	0	
4	90	0	
4	91	0	
4	92	0	
4	93	0	
4	94	0	
4	95	0	
4	96	0	
4	97	0	
4	98	0	
4	99	0	
4	100	0	
5	0	0	
5	1	0	
5	2	0	
5	3	0	
5	4	0	
5	5	0	
5	6	0	
5	7	0	
5	8	0	
5	9	0	
5	10	0	
5	11	0	
5	12	0	
5	13	0	
5	14	0	
5	15	0	
5	16	0	
5	17	0	
5	18	0	
5	19	0	
5	20	0	
5	21	0	
5	22	0	
5	23	0	
5	24	0	
5	25	0	
5	26	0	
5	27	0	
5	28	0	
5	29	0	
5	30	0	
5	31	0	
5	32	0	
5	33	0	
5	34	0	
5	35	0	
5	36	0	
5	37	0	
5	38	0	
5	39	0	
5	40	0	
5	41	0	
5	42	0	
5	43	0	
5	44	0	
5	45	0	
5	46	0	
5	47	0	
5	48	0	
5	49	0	
5	50	0	
5	51	0	
5	52	0	
5	53	0	
5	54	0	
5	55	0	
5	56	0	
5	57	0	
5	58	0	
5	59	0	
5	60	0	
5	61	0	
5	62	0	
5	63	0	
5	64	0	
5	65	0	
5	66	0	
5	67	0	
5	68	0	
5	69	0	
5	70	0	
5	71	0	
5	72	0	
5	73	0	
5	74	0	
5	75	0	
5	76	0	
5	77	0	
5	78	0	
5	79	0	
5	80	0	
5	81	0	
5	82	0	
5	83	0	
5	84	0	
5	85	0	
5	86	0	
5	87	0	
5	88	0	
5	89	0	
5	90	0	
5	91	0	
5	92	0	
5	93	0	
5	94	0	
5	95	0	
5	96	0	
5	97	0	
5	98	0	
5	99	0	
5	100	0	
6	0	0	
6	1	0	
6	2	0	
6	3	0	
6	4	0	
6	5	0	
6	6	0	
6	7	0	
6	8	0	
6	9	0	
6	10	0	
6	11	0	
6	12	0	
6	13	0	
6	14	0	
6	15	0	
6	16	0	
6	17	0	
6	18	0	
6	19	0	
6	20	0	
6	21	0	
6	22	0	
6	23	0	
6	24	0	
6	25	0	
6	26	0	
6	27	0	
6	28	0	
6	29	0	
6	30	0	
6	31	0	
6	32	0	
6	33	0	
6	34	0	
6	35	0	
6	36	0	
6	37	0	
6	38	0	
6	39	0	
6	40	0	
6	41	0	
6	42	0	
6	43	0	
6	44	0	
6	45	0	
6	46	0	
6	47	0	
6	48	0	
6	49	0	
6	50	0	
6	51	0	
6	52	0	
6	53	0	
6	54	0	
6	55	0	
6	56	0	
6	57	0	
6	58	0	
6	59	0	
6	60	0	
6	61	0	
6	62	0	
6	63	0	
6	64	0	
6	65	0	
6	66	0	
6	67	0	
6	68	0	
6	69	0	
6	70	0	
6	71	0	
6	72	0	
6	73	0	
6	74	0	
6	75	0	
6	76	0	
6	77	0	
6	78	0	
6	79	0	
6	80	0	
6	81	0	
6	82	0	
6	83	0	
6	84	0	
6	85	0	
6	86	0	
6	87	0	
6	88	0	
6	89	0	
6	90	0	
6	91	0	
6	92	0	
6	93	0	
6	94	0	
6	95	0	
6	96	0	
6	97	0	
6	98	0	
6	99	0	
6	100	0	
7	0	0	
7	1	0	
7	2	0	
7	3	0	
7	4	0	
7	5	0	
7	6	0	
7	7	0	
7	8	0	
7	9	0	
7	10	0	
7	11	0	
7	12	0	
7	13	0	
7	14	0	
7	15	0	
7	16	0	
7	17	0	
7	18	0	
7	19	0	
7	20	0	
7	21	0	
7	22	0	
7	23	0	
7	24	0	
7	25	0	
7	26	0	
7	27	0	
7	28	0	
7	29	0	
7	30	0	
7	31	0	
7	32	0	
7	33	0	
7	34	0	
7	35	0	
7	36	0	
7	37	0	
7	38	0	
7	39	0	
7	40	0	
7	41	0	
7	42	0	
7	43	0	
7	44	0	
7	45	0	
7	46	0	
7	47	0	
7	48	0	
7	49	0	
7	50	0	
7	51	0	
7	52	0	
7	53	0	
7	54	0	
7	55	0	
7	56	0	
7	57	0	
7	58	0	
7	59	0	
7	60	0	
7	61	0	
7	62	0	
7	63	0	
7	64	0	
7	65	0	
7	66	0	
7	67	0	
7	68	0	
7	69	0	
7	70	0	
7	71	0	
7	72	0	
7	73	0	
7	74	0	
7	75	0	
7	76	0	
7	77	0	
7	78	0	
7	79	0	
7	80	0	
7	81	0	
7	82	0	
7	83	0	
7	84	0	
7	85	0	
7	86	0	
7	87	0	
7	88	0	
7	89	0	
7	90	0	
7	91	0	
7	92	0	
7	93	0	
7	94	0	
7	95	0	
7	96	0	
7	97	0	
7	98	0	
7	99	0	
7	100	0	
8	0	0	
8	1	0	
8	2	0	
8	3	0	
8	4	0	
8	5	0	
8	6	0	
8	7	0	
8	8	0	
8	9	0	
8	10	0	
8	11	0	
8	12	0	
8	13	0	
8	14	0	
8	15	0	
8	16	0	
8	17	0	
8	18	0	
8	19	0	
8	20	0	
8	21	0	
8	22	0	
8	23	0	
8	24	0	
8	25	0	
8	26	0	
8	27	0	
8	28	0	
8	29	0	
8	30	0	
8	31	0	
8	32	0	
8	33	0	
8	34	0	
8	35	0	
8	36	0	
8	37	0	
8	38	0	
8	39	0	
8	40	0	
8	41	0	
8	42	0	
8	43	0	
8	44	0	
8	45	0	
8	46	0	
8	47	0	
8	48	0	
8	49	0	
8	50	0	
8	51	0	
8	52	0	
8	53	0	
8	54	0	
8	55	0	
8	56	0	
8	57	0	
8	58	0	
8	59	0	
8	60	0	
8	61	0	
8	62	0	
8	63	0	
8	64	0	
8	65	0	
8	66	0	
8	67	0	
8	68	0	
8	69	0	
8	70	0	
8	71	0	
8	72	0	
8	73	0	
8	74	0	
8	75	0	
8	76	0	
8	77	0	
8	78	0	
8	79	0	
8	80	0	
8	81	0	
8	82	0	
8	83	0	
8	84	0	
8	85	0	
8	86	0	
8	87	0	
8	88	0	
8	89	0	
8	90	0	
8	91	0	
8	92	0	
8	93	0	
8	94	0	
8	95	0	
8	96	0	
8	97	0	
8	98	0	
8	99	0	
8	100	0	
9	0	0	
9	1	0	
9	2	0	
9	3	0	
9	4	0	
9	5	0	
9	6	0	
9	7	0	
9	8	0	
9	9	0	
9	10	0	
9	11	0	
9	12	0	
9	13	0	
9	14	0	
9	15	0	
9	16	0	
9	17	0	
9	18	0	
9	19	0	
9	20	0	
9	21	0	
9	22	0	
9	23	0	
9	24	0	
9	25	0	
9	26	0	
9	27	0	
9	28	0	
9	29	0	
9	30	0	
9	31	0	
9	32	0	
9	33	0	
9	34	0	
9	35	0	
9	36	0	
9	37	0	
9	38	0	
9	39	0	
9	40	0	
9	41	0	
9	42	0	
9	43	0	
9	44	0	
9	45	0	
9	46	0	
9	47	0	
9	48	0	
9	49	0	
9	50	0	
9	51	0	
9	52	0	
9	53	0	
9	54	0	
9	55	0	
9	56	0	
9	57	0	
9	58	0	
9	59	0	
9	60	0	
9	61	0	
9	62	0	
9	63	0	
9	64	0	
9	65	0	
9	66	0	
9	67	0	
9	68	0	
9	69	0	
9	70	0	
9	71	0	
9	72	0	
9	73	0	
9	74	0	
9	75	0	
9	76	0	
9	77	0	
9	78	0	
9	79	0	
9	80	0	
9	81	0	
9	82	0	
9	83	0	
9	84	0	
9	85	0	
9	86	0	
9	87	0	
9	88	0	
9	89	0	
9	90	0	
9	91	0	
9	92	0	
9	93	0	
9	94	0	
9	95	0	
9	96	0	
9	97	0	
9	98	0	
9	99	0	
9	100	0	
10	0	0	
10	1	0	
10	2	0	
10	3	0	
10	4	0	
10	5	0	
10	6	0	
10	7	0	
10	8	0	
10	9	0	
10	10	0	
10	11	0	
10	12	0	
10	13	0	
10	14	0	
10	15	0	
10	16	0	
10	17	0	
10	18	0	
10	19	0	
10	20	0	
10	21	0	
10	22	0	
10	23	0	
10	24	0	
10	25	0	
10	26	0	
10	27	0	
10	28	0	
10	29	0	
10	30	0	
10	31	0	
10	32	0	
10	33	0	
10	34	0	
10	35	0	
10	36	0	
10	37	0	
10	38	0	
10	39	0	
10	40	0	
10	41	0	
10	42	0	
10	43	0	
10	44	0	
10	45	0	
10	46	0	
10	47	0	
10	48	0	
10	49	0	
10	50	0	
10	51	0	
10	52	0	
10	53	0	
10	54	0	
10	55	0	
10	56	0	
10	57	0	
10	58	0	
10	59	0	
10	60	0	
10	61	0	
10	62	0	
10	63	0	
10	64	0	
10	65	0	
10	66	0	
10	67	0	
10	68	0	
10	69	0	
10	70	0	
10	71	0	
10	72	0	
10	73	0	
10	74	0	
10	75	0	
10	76	0	
10	77	0	
10	78	0	
10	79	0	
10	80	0	
10	81	0	
10	82	0	
10	83	0	
10	84	0	
10	85	0	
10	86	0	
10	87	0	
10	88	0	
10	89	0	
10	90	0	
10	91	0	
10	92	0	
10	93	0	
10	94	0	
10	95	0	
10	96	0	
10	97	0	
10	98	0	
10	99	0	
10	100	0	
11	0	0	
11	1	0	
11	2	0	
11	3	0	
11	4	0	
11	5	0	
11	6	0	
11	7	0	
11	8	0	
11	9	0	
11	10	0	
11	11	0	
11	12	0	
11	13	0	
11	14	0	
11	15	0	
11	16	0	
11	17	0	
11	18	0	
11	19	0	
11	20	0	
11	21	0	
11	22	0	
11	23	0	
11	24	0	
11	25	0	
11	26	0	
11	27	0	
11	28	0	
11	29	0	
11	30	0	
11	31	0	
11	32	0	
11	33	0	
11	34	0	
11	35	0	
11	36	0	
11	37	0	
11	38	0	
11	39	0	
11	40	0	
11	41	0	
11	42	0	
11	43	0	
11	44	0	
11	45	0	
11	46	0	
11	47	0	
11	48	0	
11	49	0	
11	50	0	
11	51	0	
11	52	0	
11	53	0	
11	54	0	
11	55	0	
11	56	0	
11	57	0	
11	58	0	
11	59	0	
11	60	0	
11	61	0	
11	62	0	
11	63	0	
11	64	0	
11	65	0	
11	66	0	
11	67	0	
11	68	0	
11	69	0	
11	70	0	
11	71	0	
11	72	0	
11	73	0	
11	74	0	
11	75	0	
11	76	0	
11	77	0	
11	78	0	
11	79	0	
11	80	0	
11	81	0	
11	82	0	
11	83	0	
11	84	0	
11	85	0	
11	86	0	
11	87	0	
11	88	0	
11	89	0	
11	90	0	
11	91	0	
11	92	0	
11	93	0	
11	94	0	
11	95	0	
11	96	0	
11	97	0	
11	98	0	
11	99	0	
11	100	0	
12	0	0	
12	1	0	
12	2	0	
12	3	0	
12	4	0	
12	5	0	
12	6	0	
12	7	0	
12	8	0	
12	9	0	
12	10	0	
12	11	0	
12	12	0	
12	13	0	
[...]
POINT_DATA	30401
VECTORS d float
-2.13526e-005	-2.4515e+006	0	
-1.51143e-005	7.25309e+012	0	
-1.42981e-005	2.96042e+011	0	
3.10102e-006	6.95704e+012	0	
1.09278e-005	5.92087e+011	0	
9.60127e-006	6.661e+012	0	
-1.36516e-005	8.88132e+011	0	
-4.06608e-006	6.36495e+012	0	
8.22389e-007	1.18418e+012	0	
1.01308e-005	6.06891e+012	0	
-5.30543e-006	1.48022e+012	0	
-1.03881e-005	5.77286e+012	0	
-2.20462e-005	1.77627e+012	0	
-1.00152e-006	5.47682e+012	0	
-4.5382e-006	2.07231e+012	0	
4.2511e-006	5.18077e+012	0	
-1.42186e-005	2.36836e+012	0	
-2.54594e-006	4.88473e+012	0	
-1.25944e-005	2.6644e+012	0	
1.9612e-006	4.58868e+012	0	
-1.4923e-006	2.96044e+012	0	
1.10438e-005	4.29264e+012	0	
-5.98671e-006	3.25649e+012	0	
-9.87641e-006	3.9966e+012	0	
-2.78779e-005	3.55253e+012	0	
-1.14369e-005	3.70055e+012	0	
-1.52032e-005	3.84858e+012	0	
1.44327e-005	3.40451e+012	0	
-1.0962e-006	4.14462e+012	0	
5.42866e-006	3.10846e+012	0	
-2.08133e-005	4.44067e+012	0	
2.07015e-006	2.81242e+012	0	
-1.46267e-005	4.73671e+012	0	
-9.74406e-008	2.51638e+012	0	
-2.77469e-005	5.03275e+012	0	
-1.35131e-005	2.22033e+012	0	
-2.3695e-005	5.3288e+012	0	
-2.98111e-006	1.92429e+012	0	
-1.0723e-005	5.62484e+012	0	
3.85394e-007	1.62824e+012	0	
-2.31593e-005	5.92089e+012	0	
-1.59156e-005	1.3322e+012	0	
-2.51032e-005	6.21693e+012	0	
-1.53399e-005	1.03616e+012	0	
-2.28603e-005	6.51297e+012	0	
2.163e-006	7.40111e+011	0	
-1.60021e-005	6.80902e+012	0	
-1.05179e-005	4.44067e+011	0	
-2.37617e-005	7.10506e+012	0	
-9.07118e-006	1.48023e+011	0	
-1.05817e-005	7.40111e+012	0	
1.36076e-006	-1.48021e+011	0	
-1.89059e-005	7.69715e+012	0	
-1.38085e-005	-4.44066e+011	0	
-1.87025e-005	7.9932e+012	0	
6.37754e-006	-7.4011e+011	0	
-1.03688e-005	8.28924e+012	0	
-1.60699e-005	-1.03615e+012	0	
-4.06098e-005	8.58528e+012	0	
-2.26047e-005	-1.3322e+012	0	
-3.04491e-005	8.88133e+012	0	
1.97346e-007	-1.62824e+012	0	
-2.00978e-005	9.17737e+012	0	
-9.90021e-006	-1.92429e+012	0	
-3.28213e-005	9.47342e+012	0	
-1.50845e-005	-2.22033e+012	0	
-2.18198e-005	9.76946e+012	0	
-8.58999e-007	-2.51637e+012	0	
-1.62293e-005	1.00655e+013	0	
-5.36128e-007	-2.81242e+012	0	
-8.48508e-006	1.03616e+013	0	
1.57986e-005	-3.10846e+012	0	
-3.39027e-006	1.06576e+013	0	
8.1517e-006	-3.40451e+012	0	
-1.97773e-005	1.09536e+013	0	
-1.69943e-005	-3.70055e+012	0	
-2.81232e-005	1.12497e+013	0	
-1.20885e-006	-3.9966e+012	0	
-1.27457e-005	1.15457e+013	0	
7.93063e-006	-4.29264e+012	0	
-6.07415e-006	1.18418e+013	0	
3.79776e-006	-4.58868e+012	0	
-9.30592e-006	1.21378e+013	0	
1.3143e-006	-4.88473e+012	0	
-1.08207e-005	1.24339e+013	0	
2.77807e-007	-5.18077e+012	0	
-7.71527e-006	1.27299e+013	0	
2.4006e-006	-5.47682e+012	0	
-1.4104e-005	1.30259e+013	0	
-8.10077e-006	-5.77286e+012	0	
-1.79907e-005	1.3322e+013	0	
6.91107e-006	-6.06891e+012	0	
1.68748e-006	1.3618e+013	0	
1.15047e-005	-6.36495e+012	0	
-3.14043e-006	1.39141e+013	0	
4.19766e-006	-6.66099e+012	0	
-2.8322e-006	1.42101e+013	0	
1.60362e-005	-6.95704e+012	0	
-1.06106e-006	1.45062e+013	0	
-5.68556e-005	-7.25308e+012	0	
3.13832e-005	1.48022e+013	0	
1.48022e+011	7.40111e+012	0	
-1.48022e+011	1.4802e+011	0	
1.48022e+011	7.10506e+012	0	
-1.48023e+011	4.44065e+011	0	
1.48022e+011	6.80902e+012	0	
-1.48023e+011	7.4011e+011	0	
1.48022e+011	6.51297e+012	0	
-1.48022e+011	1.03615e+012	0	
1.48022e+011	6.21693e+012	0	
-1.48022e+011	1.3322e+012	0	
1.48022e+011	5.92089e+012	0	
-1.48022e+011	1.62824e+012	0	
1.48022e+011	5.62484e+012	0	
-1.48022e+011	1.92429e+012	0	
1.48022e+011	5.3288e+012	0	
-1.48022e+011	2.22033e+012	0	
1.48022e+011	5.03275e+012	0	
-1.48022e+011	2.51638e+012	0	
1.48022e+011	4.73671e+012	0	
-1.48022e+011	2.81242e+012	0	
1.48022e+011	4.44066e+012	0	
-1.48022e+011	3.10847e+012	0	
1.48022e+011	4.14462e+012	0	
-1.48022e+011	3.40451e+012	0	
1.48022e+011	3.84857e+012	0	
-1.48022e+011	3.70056e+012	0	
1.48022e+011	3.55253e+012	0	
-1.48022e+011	3.9966e+012	0	
1.48022e+011	3.25649e+012	0	
-1.48022e+011	4.29264e+012	0	
1.48022e+011	2.96044e+012	0	
-1.48022e+011	4.58869e+012	0	
1.48022e+011	2.6644e+012	0	
-1.48022e+011	4.88473e+012	0	
1.48022e+011	2.36835e+012	0	
-1.48022e+011	5.18078e+012	0	
1.48022e+011	2.07231e+012	0	
-1.48022e+011	5.47682e+012	0	
1.48022e+011	1.77627e+012	0	
-1.48022e+011	5.77286e+012	0	
1.48022e+011	1.48022e+012	0	
-1.48022e+011	6.06891e+012	0	
1.48022e+011	1.18418e+012	0	
-1.48022e+011	6.36495e+012	0	
1.48022e+011	8.88133e+011	0	
-1.48022e+011	6.661e+012	0	
1.48022e+011	5.92089e+011	0	
-1.48022e+011	6.95704e+012	0	
1.48022e+011	2.96045e+011	0	
-1.48022e+011	7.25309e+012	0	
1.48022e+011	746739	0	
-1.48022e+011	7.54913e+012	0	
1.48022e+011	-2.96043e+011	0	
-1.48022e+011	7.84517e+012	0	
1.48022e+011	-5.92088e+011	0	
-1.48022e+011	8.14122e+012	0	
1.48022e+011	-8.88132e+011	0	
-1.48022e+011	8.43726e+012	0	
1.48022e+011	-1.18418e+012	0	
-1.48022e+011	8.73331e+012	0	
1.48022e+011	-1.48022e+012	0	
-1.48022e+011	9.02935e+012	0	
1.48022e+011	-1.77626e+012	0	
-1.48022e+011	9.3254e+012	0	
1.48022e+011	-2.07231e+012	0	
-1.48022e+011	9.62144e+012	0	
1.48022e+011	-2.36835e+012	0	
-1.48022e+011	9.91748e+012	0	
1.48022e+011	-2.6644e+012	0	
-1.48022e+011	1.02135e+013	0	
1.48022e+011	-2.96044e+012	0	
-1.48022e+011	1.05096e+013	0	
1.48022e+011	-3.25648e+012	0	
-1.48022e+011	1.08056e+013	0	
1.48022e+011	-3.55253e+012	0	
-1.48022e+011	1.11017e+013	0	
1.48022e+011	-3.84857e+012	0	
-1.48022e+011	1.13977e+013	0	
1.48022e+011	-4.14462e+012	0	
-1.48022e+011	1.16937e+013	0	
1.48022e+011	-4.44066e+012	0	
-1.48022e+011	1.19898e+013	0	
1.48022e+011	-4.73671e+012	0	
-1.48022e+011	1.22858e+013	0	
1.48022e+011	-5.03275e+012	0	
-1.48022e+011	1.25819e+013	0	
1.48022e+011	-5.3288e+012	0	
-1.48022e+011	1.28779e+013	0	
1.48022e+011	-5.62484e+012	0	
-1.48022e+011	1.3174e+013	0	
1.48022e+011	-5.92088e+012	0	
-1.48022e+011	1.347e+013	0	
1.48022e+011	-6.21693e+012	0	
-1.48022e+011	1.37661e+013	0	
1.48022e+011	-6.51297e+012	0	
-1.48022e+011	1.40621e+013	0	
1.48022e+011	-6.80902e+012	0	
-1.48022e+011	1.43581e+013	0	
1.48022e+011	-7.10506e+012	0	
-1.48022e+011	1.46542e+013	0	
1.48022e+011	-7.40111e+012	0	
-2.96045e+011	-2.52645e+006	0	
2.96045e+011	7.25309e+012	0	
-2.96045e+011	2.96042e+011	0	
2.96045e+011	6.95704e+012	0	
-2.96045e+011	5.92087e+011	0	
2.96045e+011	6.661e+012	0	
-2.96045e+011	8.88132e+011	0	
2.96045e+011	6.36495e+012	0	
-2.96045e+011	1.18418e+012	0	
2.96045e+011	6.06891e+012	0	
-2.96045e+011	1.48022e+012	0	
2.96045e+011	5.77286e+012	0	
-2.96045e+011	1.77627e+012	0	
2.96045e+011	5.47682e+012	0	
-2.96045e+011	2.07231e+012	0	
2.96045e+011	5.18077e+012	0	
-2.96045e+011	2.36836e+012	0	
2.96045e+011	4.88473e+012	0	
-2.96045e+011	2.6644e+012	0	
2.96045e+011	4.58868e+012	0	
-2.96045e+011	2.96044e+012	0	
2.96045e+011	4.29264e+012	0	
-2.96045e+011	3.25649e+012	0	
2.96044e+011	3.9966e+012	0	
-2.96045e+011	3.55253e+012	0	
2.96044e+011	3.70055e+012	0	
-2.96045e+011	3.84858e+012	0	
2.96044e+011	3.40451e+012	0	
-2.96045e+011	4.14462e+012	0	
2.96044e+011	3.10846e+012	0	
-2.96045e+011	4.44067e+012	0	
2.96044e+011	2.81242e+012	0	
-2.96045e+011	4.73671e+012	0	
2.96044e+011	2.51638e+012	0	
-2.96045e+011	5.03275e+012	0	
2.96044e+011	2.22033e+012	0	
-2.96045e+011	5.3288e+012	0	
2.96044e+011	1.92429e+012	0	
-2.96045e+011	5.62484e+012	0	
2.96044e+011	1.62824e+012	0	
-2.96045e+011	5.92089e+012	0	
2.96044e+011	1.3322e+012	0	
-2.96045e+011	6.21693e+012	0	
2.96044e+011	1.03616e+012	0	
-2.96045e+011	6.51297e+012	0	
2.96044e+011	7.40111e+011	0	
-2.96045e+011	6.80902e+012	0	
2.96044e+011	4.44067e+011	0	
-2.96045e+011	7.10506e+012	0	
2.96044e+011	1.48023e+011	0	
-2.96045e+011	7.40111e+012	0	
2.96044e+011	-1.48021e+011	0	
-2.96045e+011	7.69715e+012	0	
2.96044e+011	-4.44065e+011	0	
-2.96045e+011	7.9932e+012	0	
2.96044e+011	-7.4011e+011	0	
-2.96045e+011	8.28924e+012	0	
2.96044e+011	-1.03615e+012	0	
-2.96045e+011	8.58528e+012	0	
2.96044e+011	-1.3322e+012	0	
-2.96045e+011	8.88133e+012	0	
2.96044e+011	-1.62824e+012	0	
-2.96045e+011	9.17737e+012	0	
2.96044e+011	-1.92429e+012	0	
-2.96045e+011	9.47342e+012	0	
2.96044e+011	-2.22033e+012	0	
-2.96045e+011	9.76946e+012	0	
2.96044e+011	-2.51637e+012	0	
-2.96045e+011	1.00655e+013	0	
2.96044e+011	-2.81242e+012	0	
-2.96045e+011	1.03616e+013	0	
2.96044e+011	-3.10846e+012	0	
-2.96045e+011	1.06576e+013	0	
2.96045e+011	-3.40451e+012	0	
-2.96045e+011	1.09536e+013	0	
2.96045e+011	-3.70055e+012	0	
-2.96045e+011	1.12497e+013	0	
2.96045e+011	-3.9966e+012	0	
-2.96045e+011	1.15457e+013	0	
2.96045e+011	-4.29264e+012	0	
-2.96045e+011	1.18418e+013	0	
2.96045e+011	-4.58868e+012	0	
-2.96045e+011	1.21378e+013	0	
2.96045e+011	-4.88473e+012	0	
-2.96045e+011	1.24339e+013	0	
2.96045e+011	-5.18077e+012	0	
-2.96045e+011	1.27299e+013	0	
2.96045e+011	-5.47682e+012	0	
-2.96045e+011	1.30259e+013	0	
2.96045e+011	-5.77286e+012	0	
-2.96045e+011	1.3322e+013	0	
2.96045e+011	-6.06891e+012	0	
-2.96045e+011	1.3618e+013	0	
2.96045e+011	-6.36495e+012	0	
-2.96045e+011	1.39141e+013	0	
2.96045e+011	-6.661e+012	0	
-2.96045e+011	1.42101e+013	0	
2.96045e+011	-6.95704e+012	0	
-2.96045e+011	1.45062e+013	0	
2.96045e+011	-7.25308e+012	0	
-2.96045e+011	1.48022e+013	0	
4.44067e+011	7.40111e+012	0	
-4.44067e+011	1.4802e+011	0	
4.44067e+011	7.10506e+012	0	
-4.44068e+011	4.44065e+011	0	
4.44067e+011	6.80902e+012	0	
-4.44067e+011	7.4011e+011	0	
4.44067e+011	6.51297e+012	0	
-4.44067e+011	1.03615e+012	0	
4.44067e+011	6.21693e+012	0	
-4.44067e+011	1.3322e+012	0	
4.44067e+011	5.92089e+012	0	
-4.44067e+011	1.62824e+012	0	
4.44067e+011	5.62484e+012	0	
-4.44067e+011	1.92429e+012	0	
4.44067e+011	5.3288e+012	0	
-4.44067e+011	2.22033e+012	0	
4.44067e+011	5.03275e+012	0	
-4.44067e+011	2.51638e+012	0	
4.44067e+011	4.73671e+012	0	
-4.44067e+011	2.81242e+012	0	
4.44067e+011	4.44066e+012	0	
-4.44067e+011	3.10847e+012	0	
4.44067e+011	4.14462e+012	0	
-4.44067e+011	3.40451e+012	0	
4.44067e+011	3.84857e+012	0	
-4.44067e+011	3.70056e+012	0	
4.44067e+011	3.55253e+012	0	
-4.44067e+011	3.9966e+012	0	
4.44067e+011	3.25649e+012	0	
-4.44067e+011	4.29264e+012	0	
4.44067e+011	2.96044e+012	0	
-4.44067e+011	4.58869e+012	0	
4.44067e+011	2.6644e+012	0	
-4.44067e+011	4.88473e+012	0	
4.44066e+011	2.36835e+012	0	
-4.44067e+011	5.18078e+012	0	
4.44066e+011	2.07231e+012	0	
-4.44067e+011	5.47682e+012	0	
4.44066e+011	1.77627e+012	0	
-4.44067e+011	5.77286e+012	0	
4.44066e+011	1.48022e+012	0	
-4.44067e+011	6.06891e+012	0	
4.44066e+011	1.18418e+012	0	
-4.44067e+011	6.36495e+012	0	
4.44066e+011	8.88133e+011	0	
-4.44067e+011	6.661e+012	0	
4.44066e+011	5.92089e+011	0	
-4.44067e+011	6.95704e+012	0	
4.44066e+011	2.96045e+011	0	
-4.44067e+011	7.25309e+012	0	
4.44066e+011	722904	0	
-4.44067e+011	7.54913e+012	0	
4.44066e+011	-2.96043e+011	0	
-4.44067e+011	7.84517e+012	0	
4.44066e+011	-5.92088e+011	0	
-4.44067e+011	8.14122e+012	0	
4.44066e+011	-8.88132e+011	0	
-4.44067e+011	8.43726e+012	0	
4.44066e+011	-1.18418e+012	0	
-4.44067e+011	8.73331e+012	0	
4.44066e+011	-1.48022e+012	0	
-4.44067e+011	9.02935e+012	0	
4.44066e+011	-1.77626e+012	0	
-4.44067e+011	9.3254e+012	0	
4.44067e+011	-2.07231e+012	0	
-4.44067e+011	9.62144e+012	0	
4.44067e+011	-2.36835e+012	0	
-4.44067e+011	9.91748e+012	0	
4.44067e+011	-2.6644e+012	0	
-4.44067e+011	1.02135e+013	0	
4.44067e+011	-2.96044e+012	0	
-4.44067e+011	1.05096e+013	0	
4.44067e+011	-3.25648e+012	0	
-4.44067e+011	1.08056e+013	0	
4.44067e+011	-3.55253e+012	0	
-4.44067e+011	1.11017e+013	0	
4.44067e+011	-3.84857e+012	0	
-4.44067e+011	1.13977e+013	0	
4.44067e+011	-4.14462e+012	0	
-4.44067e+011	1.16937e+013	0	
4.44067e+011	-4.44066e+012	0	
-4.44067e+011	1.19898e+013	0	
4.44067e+011	-4.73671e+012	0	
-4.44067e+011	1.22858e+013	0	
4.44067e+011	-5.03275e+012	0	
-4.44067e+011	1.25819e+013	0	
4.44067e+011	-5.3288e+012	0	
-4.44067e+011	1.28779e+013	0	
4.44067e+011	-5.62484e+012	0	
-4.44067e+011	1.3174e+013	0	
4.44067e+011	-5.92088e+012	0	
-4.44067e+011	1.347e+013	0	
4.44067e+011	-6.21693e+012	0	
-4.44067e+011	1.37661e+013	0	
4.44067e+011	-6.51297e+012	0	
-4.44067e+011	1.40621e+013	0	
4.44067e+011	-6.80902e+012	0	
-4.44067e+011	1.43581e+013	0	
4.44067e+011	-7.10506e+012	0	
-4.44067e+011	1.46542e+013	0	
4.44067e+011	-7.40111e+012	0	
-5.9209e+011	-2.46353e+006	0	
5.9209e+011	7.25309e+012	0	
-5.9209e+011	2.96042e+011	0	
5.9209e+011	6.95704e+012	0	
-5.9209e+011	5.92087e+011	0	
5.9209e+011	6.661e+012	0	
-5.9209e+011	8.88132e+011	0	
5.9209e+011	6.36495e+012	0	
-5.9209e+011	1.18418e+012	0	
5.9209e+011	6.06891e+012	0	
-5.9209e+011	1.48022e+012	0	
5.9209e+011	5.77286e+012	0	
-5.9209e+011	1.77627e+012	0	
5.92089e+011	5.47682e+012	0	
-5.9209e+011	2.07231e+012	0	
5.92089e+011	5.18077e+012	0	
-5.9209e+011	2.36836e+012	0	
5.92089e+011	4.88473e+012	0	
-5.9209e+011	2.6644e+012	0	
5.92089e+011	4.58868e+012	0	
-5.9209e+011	2.96044e+012	0	
5.92089e+011	4.29264e+012	0	
-5.92089e+011	3.25649e+012	0	
5.92089e+011	3.9966e+012	0	
-5.92089e+011	3.55253e+012	0	
5.92089e+011	3.70055e+012	0	
-5.92089e+011	3.84858e+012	0	
5.92089e+011	3.40451e+012	0	
-5.92089e+011	4.14462e+012	0	
5.92089e+011	3.10846e+012	0	
-5.92089e+011	4.44067e+012	0	
5.92089e+011	2.81242e+012	0	
-5.92089e+011	4.73671e+012	0	
5.92089e+011	2.51638e+012	0	
-5.92089e+011	5.03275e+012	0	
5.92089e+011	2.22033e+012	0	
-5.92089e+011	5.3288e+012	0	
5.92089e+011	1.92429e+012	0	
-5.92089e+011	5.62484e+012	0	
5.92088e+011	1.62824e+012	0	
-5.92089e+011	5.92089e+012	0	
5.92088e+011	1.3322e+012	0	
-5.92089e+011	6.21693e+012	0	
5.92088e+011	1.03616e+012	0	
-5.92089e+011	6.51297e+012	0	
5.92088e+011	7.40111e+011	0	
-5.92089e+011	6.80902e+012	0	
5.92089e+011	4.44067e+011	0	
-5.92089e+011	7.10506e+012	0	
5.92089e+011	1.48023e+011	0	
-5.92089e+011	7.40111e+012	0	
5.92089e+011	-1.48021e+011	0	
-5.92089e+011	7.69715e+012	0	
5.92089e+011	-4.44065e+011	0	
-5.92089e+011	7.9932e+012	0	
5.92089e+011	-7.4011e+011	0	
-5.92089e+011	8.28924e+012	0	
5.92089e+011	-1.03615e+012	0	
-5.9209e+011	8.58528e+012	0	
5.92089e+011	-1.3322e+012	0	
-5.9209e+011	8.88133e+012	0	
5.92089e+011	-1.62824e+012	0	
-5.9209e+011	9.17737e+012	0	
5.92089e+011	-1.92429e+012	0	
-5.9209e+011	9.47342e+012	0	
5.92089e+011	-2.22033e+012	0	
-5.92089e+011	9.76946e+012	0	
5.92089e+011	-2.51637e+012	0	
-5.92089e+011	1.00655e+013	0	
5.92089e+011	-2.81242e+012	0	
-5.92089e+011	1.03616e+013	0	
5.92089e+011	-3.10846e+012	0	
-5.92089e+011	1.06576e+013	0	
5.92089e+011	-3.40451e+012	0	
-5.92089e+011	1.09536e+013	0	
5.92089e+011	-3.70055e+012	0	
-5.9209e+011	1.12497e+013	0	
5.92089e+011	-3.9966e+012	0	
-5.92089e+011	1.15457e+013	0	
5.92089e+011	-4.29264e+012	0	
-5.92089e+011	1.18418e+013	0	
5.92089e+011	-4.58868e+012	0	
-5.92089e+011	1.21378e+013	0	
5.92089e+011	-4.88473e+012	0	
-5.92089e+011	1.24339e+013	0	
5.92089e+011	-5.18077e+012	0	
-5.92089e+011	1.27299e+013	0	
5.92089e+011	-5.47682e+012	0	
-5.92089e+011	1.30259e+013	0	
5.92089e+011	-5.77286e+012	0	
-5.92089e+011	1.3322e+013	0	
5.92089e+011	-6.06891e+012	0	
-5.92089e+011	1.3618e+013	0	
5.92089e+011	-6.36495e+012	0	
-5.92089e+011	1.39141e+013	0	
5.92089e+011	-6.661e+012	0	
-5.92089e+011	1.42101e+013	0	
5.92089e+011	-6.95704e+012	0	
-5.92089e+011	1.45062e+013	0	
5.9209e+011	-7.25308e+012	0	
-5.92089e+011	1.48022e+013	0	
7.40112e+011	7.40111e+012	0	
-7.40112e+011	1.4802e+011	0	
7.40112e+011	7.10506e+012	0	
-7.40112e+011	4.44065e+011	0	
7.40112e+011	6.80902e+012	0	
-7.40112e+011	7.4011e+011	0	
7.40112e+011	6.51297e+012	0	
-7.40112e+011	1.03615e+012	0	
7.40112e+011	6.21693e+012	0	
-7.40112e+011	1.3322e+012	0	
7.40112e+011	5.92089e+012	0	
-7.40112e+011	1.62824e+012	0	
7.40112e+011	5.62484e+012	0	
-7.40112e+011	1.92429e+012	0	
7.40112e+011	5.3288e+012	0	
-7.40112e+011	2.22033e+012	0	
7.40112e+011	5.03275e+012	0	
-7.40112e+011	2.51638e+012	0	
7.40112e+011	4.73671e+012	0	
-7.40112e+011	2.81242e+012	0	
7.40111e+011	4.44066e+012	0	
-7.40112e+011	3.10847e+012	0	
7.40111e+011	4.14462e+012	0	
-7.40112e+011	3.40451e+012	0	
7.40111e+011	3.84857e+012	0	
-7.40112e+011	3.70056e+012	0	
7.40111e+011	3.55253e+012	0	
-7.40112e+011	3.9966e+012	0	
7.40111e+011	3.25649e+012	0	
-7.40112e+011	4.29264e+012	0	
7.40111e+011	2.96044e+012	0	
-7.40112e+011	4.58869e+012	0	
7.40111e+011	2.6644e+012	0	
-7.40112e+011	4.88473e+012	0	
7.40111e+011	2.36835e+012	0	
-7.40112e+011	5.18078e+012	0	
7.40111e+011	2.07231e+012	0	
-7.40112e+011	5.47682e+012	0	
7.40111e+011	1.77627e+012	0	
-7.40112e+011	5.77286e+012	0	
7.40111e+011	1.48022e+012	0	
-7.40112e+011	6.06891e+012	0	
7.40111e+011	1.18418e+012	0	
-7.40112e+011	6.36495e+012	0	
7.40111e+011	8.88133e+011	0	
-7.40112e+011	6.661e+012	0	
7.40111e+011	5.92089e+011	0	
-7.40112e+011	6.95704e+012	0	
7.40111e+011	2.96045e+011	0	
-7.40112e+011	7.25309e+012	0	
7.40111e+011	651729	0	
-7.40112e+011	7.54913e+012	0	
7.40111e+011	-2.96043e+011	0	
-7.40112e+011	7.84517e+012	0	
7.40111e+011	-5.92088e+011	0	
-7.40112e+011	8.14122e+012	0	
7.40111e+011	-8.88132e+011	0	
-7.40112e+011	8.43726e+012	0	
7.40111e+011	-1.18418e+012	0	
-7.40112e+011	8.73331e+012	0	
7.40111e+011	-1.48022e+012	0	
-7.40112e+011	9.02935e+012	0	
7.40111e+011	-1.77626e+012	0	
-7.40112e+011	9.3254e+012	0	
7.40111e+011	-2.07231e+012	0	
-7.40112e+011	9.62144e+012	0	
7.40111e+011	-2.36835e+012	0	
-7.40112e+011	9.91748e+012	0	
7.40111e+011	-2.6644e+012	0	
-7.40112e+011	1.02135e+013	0	
7.40111e+011	-2.96044e+012	0	
-7.40112e+011	1.05096e+013	0	
7.40111e+011	-3.25648e+012	0	
-7.40112e+011	1.08056e+013	0	
7.40111e+011	-3.55253e+012	0	
-7.40112e+011	1.11017e+013	0	
7.40111e+011	-3.84857e+012	0	
-7.40112e+011	1.13977e+013	0	
7.40111e+011	-4.14462e+012	0	
-7.40112e+011	1.16937e+013	0	
7.40111e+011	-4.44066e+012	0	
-7.40112e+011	1.19898e+013	0	
7.40111e+011	-4.73671e+012	0	
-7.40112e+011	1.22858e+013	0	
7.40112e+011	-5.03275e+012	0	
-7.40112e+011	1.25819e+013	0	
7.40112e+011	-5.3288e+012	0	
-7.40112e+011	1.28779e+013	0	
7.40112e+011	-5.62484e+012	0	
-7.40112e+011	1.3174e+013	0	
7.40112e+011	-5.92088e+012	0	
-7.40112e+011	1.347e+013	0	
7.40112e+011	-6.21693e+012	0	
-7.40112e+011	1.37661e+013	0	
7.40112e+011	-6.51297e+012	0	
-7.40112e+011	1.40621e+013	0	
7.40112e+011	-6.80902e+012	0	
-7.40112e+011	1.43581e+013	0	
7.40112e+011	-7.10506e+012	0	
-7.40111e+011	1.46542e+013	0	
7.40112e+011	-7.40111e+012	0	
-8.88135e+011	-2.38572e+006	0	
8.88134e+011	7.25309e+012	0	
-8.88135e+011	2.96042e+011	0	
8.88134e+011	6.95704e+012	0	
-8.88135e+011	5.92087e+011	0	
8.88134e+011	6.661e+012	0	
-8.88135e+011	8.88132e+011	0	
8.88134e+011	6.36495e+012	0	
-8.88135e+011	1.18418e+012	0	
8.88134e+011	6.06891e+012	0	
-8.88135e+011	1.48022e+012	0	
8.88134e+011	5.77286e+012	0	
-8.88135e+011	1.77627e+012	0	
8.88134e+011	5.47682e+012	0	
-8.88134e+011	2.07231e+012	0	
8.88134e+011	5.18077e+012	0	
-8.88134e+011	2.36836e+012	0	
8.88134e+011	4.88473e+012	0	
-8.88134e+011	2.6644e+012	0	
8.88134e+011	4.58868e+012	0	
-8.88134e+011	2.96044e+012	0	
8.88134e+011	4.29264e+012	0	
-8.88134e+011	3.25649e+012	0	
8.88134e+011	3.9966e+012	0	
-8.88134e+011	3.55253e+012	0	
8.88133e+011	3.70055e+012	0	
-8.88134e+011	3.84858e+012	0	
8.88133e+011	3.40451e+012	0	
-8.88134e+011	4.14462e+012	0	
8.88133e+011	3.10846e+012	0	
-8.88134e+011	4.44067e+012	0	
8.88133e+011	2.81242e+012	0	
-8.88134e+011	4.73671e+012	0	
8.88133e+011	2.51638e+012	0	
-8.88134e+011	5.03275e+012	0	
8.88133e+011	2.22033e+012	0	
-8.88134e+011	5.3288e+012	0	
8.88133e+011	1.92429e+012	0	
-8.88134e+011	5.62484e+012	0	
8.88133e+011	1.62824e+012	0	
-8.88134e+011	5.92089e+012	0	
8.88133e+011	1.3322e+012	0	
-8.88134e+011	6.21693e+012	0	
8.88133e+011	1.03616e+012	0	
-8.88134e+011	6.51297e+012	0	
8.88133e+011	7.40111e+011	0	
-8.88134e+011	6.80902e+012	0	
8.88133e+011	4.44067e+011	0	
-8.88134e+011	7.10506e+012	0	
8.88133e+011	1.48023e+011	0	
-8.88134e+011	7.40111e+012	0	
8.88133e+011	-1.48021e+011	0	
-8.88134e+011	7.69715e+012	0	
8.88133e+011	-4.44066e+011	0	
-8.88134e+011	7.9932e+012	0	
8.88133e+011	-7.4011e+011	0	
-8.88134e+011	8.28924e+012	0	
8.88133e+011	-1.03615e+012	0	
-8.88134e+011	8.58528e+012	0	
8.88133e+011	-1.3322e+012	0	
-8.88134e+011	8.88133e+012	0	
8.88133e+011	-1.62824e+012	0	
-8.88134e+011	9.17737e+012	0	
8.88133e+011	-1.92429e+012	0	
-8.88134e+011	9.47342e+012	0	
8.88133e+011	-2.22033e+012	0	
-8.88134e+011	9.76946e+012	0	
8.88133e+011	-2.51637e+012	0	
-8.88134e+011	1.00655e+013	0	