# vtk DataFile Version 4.1
vtk output
ASCII
DATASET UNSTRUCTURED_GRID

POINTS	7701	float
0	0	0	
0	1	0	
0	2	0	
0	3	0	
0	4	0	
0	5	0	
0	6	0	
0	7	0	
0	8	0	
0	9	0	
0	10	0	
0	11	0	
0	12	0	
0	13	0	
0	14	0	
0	15	0	
0	16	0	
0	17	0	
0	18	0	
0	19	0	
0	20	0	
0	21	0	
0	22	0	
0	23	0	
0	24	0	
0	25	0	
0	26	0	
0	27	0	
0	28	0	
0	29	0	
0	30	0	
0	31	0	
0	32	0	
0	33	0	
0	34	0	
0	35	0	
0	36	0	
0	37	0	
0	38	0	
0	39	0	
0	40	0	
0	41	0	
0	42	0	
0	43	0	
0	44	0	
0	45	0	
0	46	0	
0	47	0	
0	48	0	
0	49	0	
0	50	0	
1	0	0	
1	1	0	
1	2	0	
1	3	0	
1	4	0	
1	5	0	
1	6	0	
1	7	0	
1	8	0	
1	9	0	
1	10	0	
1	11	0	
1	12	0	
1	13	0	
1	14	0	
1	15	0	
1	16	0	
1	17	0	
1	18	0	
1	19	0	
1	20	0	
1	21	0	
1	22	0	
1	23	0	
1	24	0	
1	25	0	
1	26	0	
1	27	0	
1	28	0	
1	29	0	
1	30	0	
1	31	0	
1	32	0	
1	33	0	
1	34	0	
1	35	0	
1	36	0	
1	37	0	
1	38	0	
1	39	0	
1	40	0	
1	41	0	
1	42	0	
1	43	0	
1	44	0	
1	45	0	
1	46	0	
1	47	0	
1	48	0	
1	49	0	
1	50	0	
2	0	0	
2	1	0	
2	2	0	
2	3	0	
2	4	0	
2	5	0	
2	6	0	
2	7	0	
2	8	0	
2	9	0	
2	10	0	
2	11	0	
2	12	0	
2	13	0	
2	14	0	
2	15	0	
2	16	0	
2	17	0	
2	18	0	
2	19	0	
2	20	0	
2	21	0	
2	22	0	
2	23	0	
2	24	0	
2	25	0	
2	26	0	
2	27	0	
2	28	0	
2	29	0	
2	30	0	
2	31	0	
2	32	0	
2	33	0	
2	34	0	
2	35	0	
2	36	0	
2	37	0	
2	38	0	
2	39	0	
2	40	0	
2	41	0	
2	42	0	
2	43	0	
2	44	0	
2	45	0	
2	46	0	
2	47	0	
2	48	0	
2	49	0	
2	50	0	
3	0	0	
3	1	0	
3	2	0	
3	3	0	
3	4	0	
3	5	0	
3	6	0	
3	7	0	
3	8	0	
3	9	0	
3	10	0	
3	11	0	
3	12	0	
3	13	0	
3	14	0	
3	15	0	
3	16	0	
3	17	0	
3	18	0	
3	19	0	
3	20	0	
3	21	0	
3	22	0	
3	23	0	
3	24	0	
3	25	0	
3	26	0	
3	27	0	
3	28	0	
3	29	0	
3	30	0	
3	31	0	
3	32	0	
3	33	0	
3	34	0	
3	35	0	
3	36	0	
3	37	0	
3	38	0	
3	39	0	
3	40	0	
3	41	0	
3	42	0	
3	43	0	
3	44	0	
3	45	0	
3	46	0	
3	47	0	
3	48	0	
3	49	0	
3	50	0	
4	0	0	
4	1	0	
4	2	0	
4	3	0	
4	4	0	
4	5	0	
4	6	0	
4	7	0	
4	8	0	
4	9	0	
4	10	0	
4	11	0	
4	12	0	
4	13	0	
4	14	0	
4	15	0	
4	16	0	
4	17	0	
4	18	0	
4	19	0	
4	20	0	
4	21	0	
4	22	0	
4	23	0	
4	24	0	
4	25	0	
4	26	0	
4	27	0	
4	28	0	
4	29	0	
4	30	0	
4	31	0	
4	32	0	
4	33	0	
4	34	0	
4	35	0	
4	36	0	
4	37	0	
4	38	0	
4	39	0	
4	40	0	
4	41	0	
4	42	0	
4	43	0	
4	44	0	
4	45	0	
4	46	0	
4	47	0	
4	48	0	
4	49	0	
4	50	0	
5	0	0	
5	1	0	
5	2	0	
5	3	0	
5	4	0	
5	5	0	
5	6	0	
5	7	0	
5	8	0	
5	9	0	
5	10	0	
5	11	0	
5	12	0	
5	13	0	
5	14	0	
5	15	0	
5	16	0	
5	17	0	
5	18	0	
5	19	0	
5	20	0	
5	21	0	
5	22	0	
5	23	0	
5	24	0	
5	25	0	
5	26	0	
5	27	0	
5	28	0	
5	29	0	
5	30	0	
5	31	0	
5	32	0	
5	33	0	
5	34	0	
5	35	0	
5	36	0	
5	37	0	
5	38	0	
5	39	0	
5	40	0	
5	41	0	
5	42	0	
5	43	0	
5	44	0	
5	45	0	
5	46	0	
5	47	0	
5	48	0	
5	49	0	
5	50	0	
6	0	0	
6	1	0	
6	2	0	
6	3	0	
6	4	0	
6	5	0	
6	6	0	
6	7	0	
6	8	0	
6	9	0	
6	10	0	
6	11	0	
6	12	0	
6	13	0	
6	14	0	
6	15	0	
6	16	0	
6	17	0	
6	18	0	
6	19	0	
6	20	0	
6	21	0	
6	22	0	
6	23	0	
6	24	0	
6	25	0	
6	26	0	
6	27	0	
6	28	0	
6	29	0	
6	30	0	
6	31	0	
6	32	0	
6	33	0	
6	34	0	
6	35	0	
6	36	0	
6	37	0	
6	38	0	
6	39	0	
6	40	0	
6	41	0	
6	42	0	
6	43	0	
6	44	0	
6	45	0	
6	46	0	
6	47	0	
6	48	0	
6	49	0	
6	50	0	
7	0	0	
7	1	0	
7	2	0	
7	3	0	
7	4	0	
7	5	0	
7	6	0	
7	7	0	
7	8	0	
7	9	0	
7	10	0	
7	11	0	
7	12	0	
7	13	0	
7	14	0	
7	15	0	
7	16	0	
7	17	0	
7	18	0	
7	19	0	
7	20	0	
7	21	0	
7	22	0	
7	23	0	
7	24	0	
7	25	0	
7	26	0	
7	27	0	
7	28	0	
7	29	0	
7	30	0	
7	31	0	
7	32	0	
7	33	0	
7	34	0	
7	35	0	
7	36	0	
7	37	0	
7	38	0	
7	39	0	
7	40	0	
7	41	0	
7	42	0	
7	43	0	
7	44	0	
7	45	0	
7	46	0	
7	47	0	
7	48	0	
7	49	0	
7	50	0	
8	0	0	
8	1	0	
8	2	0	
8	3	0	
8	4	0	
8	5	0	
8	6	0	
8	7	0	
8	8	0	
8	9	0	
8	10	0	
8	11	0	
8	12	0	
8	13	0	
8	14	0	
8	15	0	
8	16	0	
8	17	0	
8	18	0	
8	19	0	
8	20	0	
8	21	0	
8	22	0	
8	23	0	
8	24	0	
8	25	0	
8	26	0	
8	27	0	
8	28	0	
8	29	0	
8	30	0	
8	31	0	
8	32	0	
8	33	0	
8	34	0	
8	35	0	
8	36	0	
8	37	0	
8	38	0	
8	39	0	
8	40	0	
8	41	0	
8	42	0	
8	43	0	
8	44	0	
8	45	0	
8	46	0	
8	47	0	
8	48	0	
8	49	0	
8	50	0	
9	0	0	
9	1	0	
9	2	0	
9	3	0	
9	4	0	
9	5	0	
9	6	0	
9	7	0	
9	8	0	
9	9	0	
9	10	0	
9	11	0	
9	12	0	
9	13	0	
9	14	0	
9	15	0	
9	16	0	
9	17	0	
9	18	0	
9	19	0	
9	20	0	
9	21	0	
9	22	0	
9	23	0	
9	24	0	
9	25	0	
9	26	0	
9	27	0	
9	28	0	
9	29	0	
9	30	0	
9	31	0	
9	32	0	
9	33	0	
9	34	0	
9	35	0	
9	36	0	
9	37	0	
9	38	0	
9	39	0	
9	40	0	
9	41	0	
9	42	0	
9	43	0	
9	44	0	
9	45	0	
9	46	0	
9	47	0	
9	48	0	
9	49	0	
9	50	0	
10	0	0	
10	1	0	
10	2	0	
10	3	0	
10	4	0	
10	5	0	
10	6	0	
10	7	0	
10	8	0	
10	9	0	
10	10	0	
10	11	0	
10	12	0	
10	13	0	
10	14	0	
10	15	0	
10	16	0	
10	17	0	
10	18	0	
10	19	0	
10	20	0	
10	21	0	
10	22	0	
10	23	0	
10	24	0	
10	25	0	
10	26	0	
10	27	0	
10	28	0	
10	29	0	
10	30	0	
10	31	0	
10	32	0	
10	33	0	
10	34	0	
10	35	0	
10	36	0	
10	37	0	
10	38	0	
10	39	0	
10	40	0	
10	41	0	
10	42	0	
10	43	0	
10	44	0	
10	45	0	
10	46	0	
10	47	0	
10	48	0	
10	49	0	
10	50	0	
11	0	0	
11	1	0	
11	2	0	
11	3	0	
11	4	0	
11	5	0	
11	6	0	
11	7	0	
11	8	0	
11	9	0	
11	10	0	
11	11	0	
11	12	0	
11	13	0	
11	14	0	
11	15	0	
11	16	0	
11	17	0	
11	18	0	
11	19	0	
11	20	0	
11	21	0	
11	22	0	
11	23	0	
11	24	0	
11	25	0	
11	26	0	
11	27	0	
11	28	0	
11	29	0	
11	30	0	
11	31	0	
11	32	0	
11	33	0	
11	34	0	
11	35	0	
11	36	0	
11	37	0	
11	38	0	
11	39	0	
11	40	0	
11	41	0	
11	42	0	
11	43	0	
11	44	0	
11	45	0	
11	46	0	
11	47	0	
11	48	0	
11	49	0	
11	50	0	
12	0	0	
12	1	0	
12	2	0	
12	3	0	
12	4	0	
12	5	0	
12	6	0	
12	7	0	
12	8	0	
12	9	0	
12	10	0	
12	11	0	
12	12	0	
12	13	0	
12	14	0	
12	15	0	
12	16	0	
12	17	0	
12	18	0	
12	19	0	
12	20	0	
12	21	0	
12	22	0	
12	23	0	
12	24	0	
12	25	0	
12	26	0	
12	27	0	
12	28	0	
12	29	0	
12	30	0	
12	31	0	
12	32	0	
12	33	0	
12	34	0	
12	35	0	
12	36	0	
12	37	0	
12	38	0	
12	39	0	
12	40	0	
12	41	0	
12	42	0	
12	43	0	
12	44	0	
12	45	0	
12	46	0	
12	47	0	
12	48	0	
12	49	0	
12	50	0	
13	0	0	
13	1	0	
13	2	0	
13	3	0	
13	4	0	
13	5	0	
13	6	0	
13	7	0	
13	8	0	
13	9	0	
13	10	0	
13	11	0	
13	12	0	
13	13	0	
13	14	0	
13	15	0	
13	16	0	
13	17	0	
13	18	0	
13	19	0	
13	20	0	
13	21	0	
13	22	0	
13	23	0	
13	24	0	
13	25	0	
13	26	0	
13	27	0	
13	28	0	
13	29	0	
13	30	0	
13	31	0	
13	32	0	
13	33	0	
13	34	0	
13	35	0	
13	36	0	
13	37	0	
13	38	0	
13	39	0	
13	40	0	
13	41	0	
13	42	0	
13	43	0	
13	44	0	
13	45	0	
13	46	0	
13	47	0	
13	48	0	
13	49	0	
13	50	0	
14	0	0	
14	1	0	
14	2	0	
14	3	0	
14	4	0	
14	5	0	
14	6	0	
14	7	0	
14	8	0	
14	9	0	
14	10	0	
14	11	0	
14	12	0	
14	13	0	
14	14	0	
14	15	0	
14	16	0	
14	17	0	
14	18	0	
14	19	0	
14	20	0	
14	21	0	
14	22	0	
14	23	0	
14	24	0	
14	25	0	
14	26	0	
14	27	0	
14	28	0	
14	29	0	
14	30	0	
14	31	0	
14	32	0	
14	33	0	
14	34	0	
14	35	0	
14	36	0	
14	37	0	
14	38	0	
14	39	0	
14	40	0	
14	41	0	
14	42	0	
14	43	0	
14	44	0	
14	45	0	
14	46	0	
14	47	0	
14	48	0	
14	49	0	
14	50	0	
15	0	0	
15	1	0	
15	2	0	
15	3	0	
15	4	0	
15	5	0	
15	6	0	
15	7	0	
15	8	0	
15	9	0	
15	10	0	
15	11	0	
15	12	0	
15	13	0	
15	14	0	
15	15	0	
15	16	0	
15	17	0	
15	18	0	
15	19	0	
15	20	0	
15	21	0	
15	22	0	
15	23	0	
15	24	0	
15	25	0	
15	26	0	
15	27	0	
15	28	0	
15	29	0	
15	30	0	
15	31	0	
15	32	0	
15	33	0	
15	34	0	
15	35	0	
15	36	0	
15	37	0	
15	38	0	
15	39	0	
15	40	0	
15	41	0	
15	42	0	
15	43	0	
15	44	0	
15	45	0	
15	46	0	
15	47	0	
15	48	0	
15	49	0	
15	50	0	
16	0	0	
16	1	0	
16	2	0	
16	3	0	
16	4	0	
16	5	0	
16	6	0	
16	7	0	
16	8	0	
16	9	0	
16	10	0	
16	11	0	
16	12	0	
16	13	0	
16	14	0	
16	15	0	
16	16	0	
16	17	0	
16	18	0	
16	19	0	
16	20	0	
16	21	0	
16	22	0	
16	23	0	
16	24	0	
16	25	0	
16	26	0	
16	27	0	
16	28	0	
16	29	0	
16	30	0	
16	31	0	
16	32	0	
16	33	0	
16	34	0	
16	35	0	
16	36	0	
16	37	0	
16	38	0	
16	39	0	
16	40	0	
16	41	0	
16	42	0	
16	43	0	
16	44	0	
16	45	0	
16	46	0	
16	47	0	
16	48	0	
16	49	0	
16	50	0	
17	0	0	
17	1	0	
17	2	0	
17	3	0	
17	4	0	
17	5	0	
17	6	0	
17	7	0	
17	8	0	
17	9	0	
17	10	0	
17	11	0	
17	12	0	
17	13	0	
17	14	0	
17	15	0	
17	16	0	
17	17	0	
17	18	0	
17	19	0	
17	20	0	
17	21	0	
17	22	0	
17	23	0	
17	24	0	
17	25	0	
17	26	0	
17	27	0	
17	28	0	
17	29	0	
17	30	0	
17	31	0	
17	32	0	
17	33	0	
17	34	0	
17	35	0	
17	36	0	
17	37	0	
17	38	0	
17	39	0	
17	40	0	
17	41	0	
17	42	0	
17	43	0	
17	44	0	
17	45	0	
17	46	0	
17	47	0	
17	48	0	
17	49	0	
17	50	0	
18	0	0	
18	1	0	
18	2	0	
18	3	0	
18	4	0	
18	5	0	
18	6	0	
18	7	0	
18	8	0	
18	9	0	
18	10	0	
18	11	0	
18	12	0	
18	13	0	
18	14	0	
18	15	0	
18	16	0	
18	17	0	
18	18	0	
18	19	0	
18	20	0	
18	21	0	
18	22	0	
18	23	0	
18	24	0	
18	25	0	
18	26	0	
18	27	0	
18	28	0	
18	29	0	
18	30	0	
18	31	0	
18	32	0	
18	33	0	
18	34	0	
18	35	0	
18	36	0	
18	37	0	
18	38	0	
18	39	0	
18	40	0	
18	41	0	
18	42	0	
18	43	0	
18	44	0	
18	45	0	
18	46	0	
18	47	0	
18	48	0	
18	49	0	
18	50	0	
19	0	0	
19	1	0	
19	2	0	
19	3	0	
19	4	0	
19	5	0	
19	6	0	
19	7	0	
19	8	0	
19	9	0	
19	10	0	
19	11	0	
19	12	0	
19	13	0	
19	14	0	
19	15	0	
19	16	0	
19	17	0	
19	18	0	
19	19	0	
19	20	0	
19	21	0	
19	22	0	
19	23	0	
19	24	0	
19	25	0	
19	26	0	
19	27	0	
19	28	0	
19	29	0	
19	30	0	
19	31	0	
19	32	0	
19	33	0	
19	34	0	
19	35	0	
19	36	0	
19	37	0	
19	38	0	
19	39	0	
19	40	0	
19	41	0	
19	42	0	
19	43	0	
19	44	0	
19	45	0	
19	46	0	
19	47	0	
19	48	0	
19	49	0	
19	50	0	
20	0	0	
20	1	0	
20	2	0	
20	3	0	
20	4	0	
20	5	0	
20	6	0	
20	7	0	
20	8	0	
20	9	0	
20	10	0	
20	11	0	
20	12	0	
20	13	0	
20	14	0	
20	15	0	
20	16	0	
20	17	0	
20	18	0	
20	19	0	
20	20	0	
20	21	0	
20	22	0	
20	23	0	
20	24	0	
20	25	0	
20	26	0	
20	27	0	
20	28	0	
20	29	0	
20	30	0	
20	31	0	
20	32	0	
20	33	0	
20	34	0	
20	35	0	
20	36	0	
20	37	0	
20	38	0	
20	39	0	
20	40	0	
20	41	0	
20	42	0	
20	43	0	
20	44	0	
20	45	0	
20	46	0	
20	47	0	
20	48	0	
20	49	0	
20	50	0	
21	0	0	
21	1	0	
21	2	0	
21	3	0	
21	4	0	
21	5	0	
21	6	0	
21	7	0	
21	8	0	
21	9	0	
21	10	0	
21	11	0	
21	12	0	
21	13	0	
21	14	0	
21	15	0	
21	16	0	
21	17	0	
21	18	0	
21	19	0	
21	20	0	
21	21	0	
21	22	0	
21	23	0	
21	24	0	
21	25	0	
21	26	0	
21	27	0	
21	28	0	
21	29	0	
21	30	0	
21	31	0	
21	32	0	
21	33	0	
21	34	0	
21	35	0	
21	36	0	
21	37	0	
21	38	0	
21	39	0	
21	40	0	
21	41	0	
21	42	0	
21	43	0	
21	44	0	
21	45	0	
21	46	0	
21	47	0	
21	48	0	
21	49	0	
21	50	0	
22	0	0	
22	1	0	
22	2	0	
22	3	0	
22	4	0	
22	5	0	
22	6	0	
22	7	0	
22	8	0	
22	9	0	
22	10	0	
22	11	0	
22	12	0	
22	13	0	
22	14	0	
22	15	0	
22	16	0	
22	17	0	
22	18	0	
22	19	0	
22	20	0	
22	21	0	
22	22	0	
22	23	0	
22	24	0	
22	25	0	
22	26	0	
22	27	0	
22	28	0	
22	29	0	
22	30	0	
22	31	0	
22	32	0	
22	33	0	
22	34	0	
22	35	0	
22	36	0	
22	37	0	
22	38	0	
22	39	0	
22	40	0	
22	41	0	
22	42	0	
22	43	0	
22	44	0	
22	45	0	
22	46	0	
22	47	0	
22	48	0	
22	49	0	
22	50	0	
23	0	0	
23	1	0	
23	2	0	
23	3	0	
23	4	0	
23	5	0	
23	6	0	
23	7	0	
23	8	0	
23	9	0	
23	10	0	
[...]
POINT_DATA	7701
VECTORS d float
3.09519e-016	-0.00127775	0	
2.99718e-016	-0.000285591	0	
2.82921e-016	-0.00127668	0	
2.63098e-016	-0.000290599	0	
2.46719e-016	-0.00127536	0	
2.27317e-016	-0.000295363	0	
2.19017e-016	-0.0012738	0	
7.77198e-017	-0.000302615	0	
1.46755e-016	-0.00127589	0	
1.16155e-016	-0.000313111	0	
1.73623e-016	-0.001279	0	
1.24559e-016	-0.000324213	0	
1.78601e-016	-0.00128283	0	
1.08824e-016	-0.000335797	0	
1.61924e-016	-0.0012872	0	
2.88498e-016	-0.000347668	0	
2.71081e-016	-0.00128951	0	
2.14138e-016	-0.000351621	0	
1.97638e-016	-0.00128893	0	
1.47618e-016	-0.000355525	0	
1.54748e-016	-0.00128819	0	
1.1087e-016	-0.000359696	0	
1.34294e-016	-0.00128774	0	
9.054e-017	-0.000364342	0	
1.26034e-016	-0.00128778	0	
7.66752e-017	-0.000369542	0	
1.22883e-016	-0.00128838	0	
6.38026e-017	-0.000375293	0	
1.20768e-016	-0.00128952	0	
4.92087e-017	-0.000381561	0	
1.17222e-016	-0.00129119	0	
3.15679e-017	-0.000388295	0	
1.10519e-016	-0.0012934	0	
9.89661e-018	-0.000395435	0	
9.88828e-017	-0.00129617	0	
-1.74401e-017	-0.000402906	0	
8.00394e-017	-0.00129955	0	
-5.28695e-017	-0.000410603	0	
5.05148e-017	-0.00130362	0	
-9.84779e-017	-0.000418353	0	
4.50697e-018	-0.00130848	0	
-1.61736e-016	-0.000425828	0	
-5.99893e-017	-0.00131416	0	
-1.9593e-016	-0.000432221	0	
-1.38922e-016	-0.00132129	0	
-3.25667e-016	-0.00043738	0	
-1.45674e-016	-0.00132831	0	
-3.19199e-016	-0.000438315	0	
-3.26221e-016	-0.00133263	0	
-4.72365e-016	-0.000435167	0	
-1.19944e-015	-0.00135204	0	
4.04335e-006	-0.000282932	0	
8.29125e-007	-0.00127718	0	
3.75557e-006	-0.000288051	0	
5.45645e-007	-0.00127598	0	
3.47054e-006	-0.000292943	0	
2.58898e-007	-0.00127453	0	
3.18819e-006	-0.000297574	0	
4.76207e-007	-0.00127461	0	
3.67545e-006	-0.000307663	0	
1.00121e-006	-0.00127724	0	
3.86183e-006	-0.000318429	0	
1.33152e-006	-0.00128069	0	
3.86076e-006	-0.00032974	0	
1.51565e-006	-0.00128478	0	
3.63763e-006	-0.000341474	0	
1.52454e-006	-0.00128932	0	
3.03105e-006	-0.000349419	0	
8.14326e-007	-0.00128905	0	
2.43988e-006	-0.000353304	0	
4.5026e-007	-0.00128831	0	
2.1562e-006	-0.000357311	0	
3.68097e-007	-0.00128769	0	
2.04974e-006	-0.000361717	0	
4.49232e-007	-0.0012875	0	
2.00743e-006	-0.00036665	0	
6.06949e-007	-0.00128784	0	
1.96574e-006	-0.000372136	0	
7.95811e-007	-0.00128872	0	
1.89505e-006	-0.000378152	0	
9.9399e-007	-0.00129013	0	
1.78259e-006	-0.000384654	0	
1.19154e-006	-0.00129206	0	
1.62135e-006	-0.000391586	0	
1.38314e-006	-0.00129453	0	
1.40047e-006	-0.000398882	0	
1.56317e-006	-0.00129758	0	
1.09586e-006	-0.000406453	0	
1.72569e-006	-0.00130127	0	
6.69353e-007	-0.000414172	0	
1.85703e-006	-0.00130569	0	
8.20637e-008	-0.000421811	0	
1.91976e-006	-0.001311	0	
-8.40127e-007	-0.000428973	0	
2.04403e-006	-0.00131733	0	
-1.3456e-006	-0.000434754	0	
1.42062e-006	-0.00132485	0	
-3.76638e-006	-0.000438714	0	
7.77675e-007	-0.00132861	0	
-4.96523e-006	-0.000435179	0	
1.63733e-006	-0.0013354	0	
-9.99322e-006	-0.000424651	0	
1.93778e-006	-0.00127747	0	
7.79979e-006	-0.000285299	0	
1.37393e-006	-0.0012764	0	
7.22722e-006	-0.000290314	0	
8.03635e-007	-0.00127507	0	
6.65967e-006	-0.000295085	0	
2.27136e-007	-0.00127351	0	
6.96326e-006	-0.000302244	0	
1.54167e-006	-0.00127555	0	
7.5719e-006	-0.000312569	0	
2.32866e-006	-0.00127849	0	
7.75354e-006	-0.000323447	0	
2.87466e-006	-0.00128217	0	
7.57401e-006	-0.000334881	0	
3.05806e-006	-0.00128645	0	
6.90671e-006	-0.000346663	0	
2.20184e-006	-0.00128863	0	
5.3641e-006	-0.000350605	0	
1.13886e-006	-0.00128798	0	
4.53576e-006	-0.000354511	0	
7.45669e-007	-0.00128727	0	
4.19516e-006	-0.000358727	0	
7.8602e-007	-0.00128691	0	
4.07213e-006	-0.000363434	0	
1.04265e-006	-0.00128704	0	
3.99684e-006	-0.000368677	0	
1.39412e-006	-0.0012877	0	
3.88543e-006	-0.000374446	0	
1.77964e-006	-0.00128887	0	
3.70049e-006	-0.000380704	0	
2.17052e-006	-0.00129054	0	
3.42559e-006	-0.0003874	0	
2.55326e-006	-0.00129272	0	
3.04671e-006	-0.000394474	0	
2.91747e-006	-0.00129542	0	
2.53363e-006	-0.000401848	0	
3.24802e-006	-0.00129872	0	
1.82358e-006	-0.000409417	0	
3.53184e-006	-0.00130269	0	
8.34787e-007	-0.00041703	0	
3.73513e-006	-0.00130743	0	
-5.05415e-007	-0.000424424	0	
3.80761e-006	-0.00131337	0	
-2.28095e-006	-0.000431539	0	
4.8175e-006	-0.00132111	0	
-4.49466e-006	-0.000436895	0	
1.38598e-006	-0.0013238	0	
-7.88699e-006	-0.000433776	0	
1.68768e-007	-0.00132701	0	
-1.18113e-005	-0.000426429	0	
-7.60136e-006	-0.00132755	0	
1.21364e-005	-0.000282342	0	
2.48064e-006	-0.00127662	0	
1.12735e-005	-0.000287475	0	
1.63022e-006	-0.00127541	0	
1.04186e-005	-0.00029238	0	
7.69782e-007	-0.00127395	0	
9.57111e-006	-0.000297024	0	
1.47839e-006	-0.00127401	0	
1.10177e-005	-0.000306762	0	
2.91009e-006	-0.00127641	0	
1.14677e-005	-0.000317129	0	
3.84391e-006	-0.00127946	0	
1.16076e-005	-0.00032799	0	
4.55197e-006	-0.00128337	0	
1.09525e-005	-0.000339563	0	
4.37853e-006	-0.00128765	0	
9.00807e-006	-0.000347391	0	
2.23781e-006	-0.00128718	0	
7.28529e-006	-0.000351252	0	
1.23872e-006	-0.00128643	0	
6.51518e-006	-0.000355325	0	
1.07391e-006	-0.00128595	0	
6.23044e-006	-0.000359859	0	
1.34174e-006	-0.00128595	0	
6.10329e-006	-0.000364901	0	
1.81078e-006	-0.00128644	0	
5.9655e-006	-0.000370447	0	
2.36078e-006	-0.00128741	0	
5.73801e-006	-0.000376469	0	
2.93217e-006	-0.00128885	0	
5.38662e-006	-0.000382924	0	
3.49693e-006	-0.00129075	0	
4.89425e-006	-0.000389754	0	
4.03936e-006	-0.00129312	0	
4.23591e-006	-0.00039689	0	
4.53892e-006	-0.00129603	0	
3.35102e-006	-0.000404243	0	
4.96086e-006	-0.00129953	0	
2.1244e-006	-0.000411678	0	
5.29569e-006	-0.0013037	0	
4.40804e-007	-0.000419048	0	
5.51164e-006	-0.00130875	0	
-1.67737e-006	-0.000426036	0	
5.56613e-006	-0.00131528	0	
-2.99114e-006	-0.000433873	0	
3.05343e-006	-0.00131876	0	
-8.91659e-006	-0.000431216	0	
-4.57981e-007	-0.00132057	0	
-1.32036e-005	-0.000426464	0	
-6.33479e-006	-0.00132132	0	
-1.91292e-005	-0.000421324	0	
3.86149e-006	-0.00127665	0	
1.5613e-005	-0.000284424	0	
2.73426e-006	-0.00127555	0	
1.4468e-005	-0.000289459	0	
1.59365e-006	-0.0012742	0	
1.33331e-005	-0.000294249	0	
4.39996e-007	-0.00127262	0	
1.40733e-005	-0.000301037	0	
3.16549e-006	-0.00127459	0	
1.49125e-005	-0.000311015	0	
4.20103e-006	-0.00127681	0	
1.54004e-005	-0.000321032	0	
5.70736e-006	-0.00128017	0	
1.52946e-005	-0.00033211	0	
6.04944e-006	-0.00128414	0	
1.36684e-005	-0.00034359	0	
3.95295e-006	-0.00128589	0	
1.05855e-005	-0.000347496	0	
1.95841e-006	-0.0012851	0	
9.10795e-006	-0.000351456	0	
1.38695e-006	-0.00128457	0	
8.5374e-006	-0.000355881	0	
1.55243e-006	-0.00128449	0	
8.3108e-006	-0.000360782	0	
2.07496e-006	-0.00128489	0	
8.14168e-006	-0.00036615	0	
2.75387e-006	-0.00128572	0	
7.88962e-006	-0.000371964	0	
3.48488e-006	-0.00128699	0	
7.49021e-006	-0.00037819	0	
4.21641e-006	-0.00128865	0	
6.9163e-006	-0.000384777	0	
4.92322e-006	-0.00129072	0	
6.14961e-006	-0.000391661	0	
5.58376e-006	-0.00129324	0	
5.14764e-006	-0.000398762	0	
6.15403e-006	-0.00129627	0	
3.808e-006	-0.000405972	0	
6.55828e-006	-0.00129991	0	
1.95306e-006	-0.000413112	0	
6.84041e-006	-0.00130417	0	
-5.13289e-007	-0.000420052	0	
7.05236e-006	-0.00130944	0	
-3.88287e-006	-0.00042588	0	
6.13002e-006	-0.00131338	0	
-8.38606e-006	-0.000427498	0	
9.74403e-008	-0.00131452	0	
-1.35456e-005	-0.000424591	0	
-5.66082e-006	-0.00131519	0	
-1.9259e-005	-0.000420406	0	
-1.47423e-005	-0.00131376	0	
2.025e-005	-0.000281162	0	
4.11176e-006	-0.00127551	0	
1.88109e-005	-0.000286323	0	
2.69352e-006	-0.00127427	0	
1.73867e-005	-0.000291252	0	
1.26045e-006	-0.00127278	0	
1.59738e-005	-0.000295921	0	
3.044e-006	-0.00127315	0	
1.82687e-005	-0.00030486	0	
4.08501e-006	-0.00127409	0	
1.88367e-005	-0.000314372	0	
6.03691e-006	-0.00127724	0	
1.93178e-005	-0.000324501	0	
7.77174e-006	-0.00128048	0	
1.85079e-005	-0.000335776	0	
6.57953e-006	-0.00128411	0	
1.46901e-005	-0.000343184	0	
3.02007e-006	-0.00128325	0	
1.20867e-005	-0.00034705	0	
1.80306e-006	-0.00128269	0	
1.10633e-005	-0.000351449	0	
1.73209e-006	-0.00128263	0	
1.06597e-005	-0.00035629	0	
2.22651e-006	-0.001283	0	
1.04323e-005	-0.000361543	0	
2.98575e-006	-0.00128378	0	
1.01591e-005	-0.000367193	0	
3.84724e-006	-0.00128492	0	
9.73148e-006	-0.000373218	0	
4.72569e-006	-0.00128641	0	
9.10111e-006	-0.000379579	0	
5.57876e-006	-0.00128823	0	
8.24844e-006	-0.000386218	0	
6.38217e-006	-0.0012904	0	
7.15187e-006	-0.000393062	0	
7.09861e-006	-0.00129299	0	
5.74173e-006	-0.000400015	0	
7.6328e-006	-0.00129607	0	
3.86481e-006	-0.000406944	0	
7.81516e-006	-0.00129975	0	
1.2959e-006	-0.000413582	0	
7.84379e-006	-0.00130378	0	
-2.00692e-006	-0.000419686	0	
8.28432e-006	-0.00130993	0	
-6.51959e-006	-0.000422776	0	
1.56435e-006	-0.00130852	0	
-1.26622e-005	-0.000421319	0	
-4.82877e-006	-0.00130912	0	
-1.87019e-005	-0.000418377	0	
-1.28667e-005	-0.00130835	0	
-2.61034e-005	-0.000415455	0	
5.75853e-006	-0.00127528	0	
2.34551e-005	-0.000282969	0	
4.06534e-006	-0.00127415	0	
2.17313e-005	-0.000288035	0	
2.35513e-006	-0.00127275	0	
2.00347e-005	-0.000292851	0	
6.26269e-007	-0.00127114	0	
2.32584e-005	-0.000296955	0	
3.46487e-006	-0.00127123	0	
2.17125e-005	-0.000307526	0	
6.34104e-006	-0.00127399	0	
2.2967e-005	-0.000317754	0	
8.00124e-006	-0.00127797	0	
2.3097e-005	-0.000327717	0	
9.48836e-006	-0.00127977	0	
2.00749e-005	-0.000338159	0	
4.57147e-006	-0.00128082	0	
1.55816e-005	-0.000341983	0	
2.40434e-006	-0.00128027	0	
1.38917e-005	-0.000346499	0	
1.94402e-006	-0.0012803	0	
1.32033e-005	-0.000351392	0	
2.31298e-006	-0.00128074	0	
1.28668e-005	-0.00035661	0	
3.09126e-006	-0.00128153	0	
1.25588e-005	-0.000362154	0	
4.04556e-006	-0.00128263	0	
1.2112e-005	-0.000368019	0	
5.04646e-006	-0.00128401	0	
1.14457e-005	-0.000374183	0	
6.02649e-006	-0.00128565	0	
1.05262e-005	-0.0003806	0	
6.95063e-006	-0.00128755	0	
9.34127e-006	-0.000387201	0	
7.79085e-006	-0.00128974	0	
7.86222e-006	-0.000393898	0	
8.4743e-006	-0.0012923	0	
5.97297e-006	-0.000400584	0	
8.80003e-006	-0.00129531	0	
3.47049e-006	-0.000407086	0	
8.36043e-006	-0.00129883	0	
2.54908e-007	-0.000413077	0	
7.37024e-006	-0.00130186	0	
-2.97859e-006	-0.000417128	0	
2.58312e-006	-0.0013034	0	
-1.04983e-005	-0.000417067	0	
-3.64165e-006	-0.00130318	0	
-1.72849e-005	-0.000415281	0	
-1.13184e-005	-0.00130274	0	
-2.45248e-005	-0.000412877	0	
-2.12438e-005	-0.00130066	0	
2.8404e-005	-0.000279395	0	
5.70934e-006	-0.00127385	0	
2.63823e-005	-0.000284598	0	
3.71557e-006	-0.00127256	0	
2.4376e-005	-0.00028956	0	
1.72081e-006	-0.00127101	0	
2.24157e-005	-0.000294254	0	
4.18475e-006	-0.00126657	0	
2.51695e-005	-0.000299502	0	
6.5905e-006	-0.00127172	0	
2.50839e-005	-0.000311664	0	
9.02153e-006	-0.00127401	0	
2.71574e-005	-0.00032057	0	
9.79023e-006	-0.00127918	0	
2.80103e-005	-0.000333075	0	
6.99487e-006	-0.00127762	0	
1.97475e-005	-0.000336036	0	
3.29241e-006	-0.0012772	0	
1.71219e-005	-0.000340951	0	
2.25786e-006	-0.00127748	0	
1.60067e-005	-0.000346056	0	
2.38681e-006	-0.00127809	0	
1.54835e-005	-0.000351341	0	
3.11035e-006	-0.00127897	0	
1.51079e-005	-0.000356848	0	
4.11137e-006	-0.0012801	0	
1.46382e-005	-0.000362603	0	
5.20552e-006	-0.00128144	0	
1.39498e-005	-0.000368605	0	
6.29156e-006	-0.00128297	0	
1.29846e-005	-0.000374826	0	
7.31748e-006	-0.00128467	0	
1.17207e-005	-0.000381214	0	
8.25109e-006	-0.00128656	0	
1.01552e-005	-0.000387681	0	
9.05523e-006	-0.00128867	0	
8.24009e-006	-0.000394124	0	
9.58171e-006	-0.0012911	0	
5.76101e-006	-0.000400421	0	
9.43459e-006	-0.00129381	0	
2.46217e-006	-0.000406341	0	
7.70199e-006	-0.00129675	0	
-3.26359e-007	-0.000412804	0	
4.16402e-006	-0.00129795	0	
-7.58223e-006	-0.000411747	0	
-2.34462e-006	-0.00129769	0	
-1.49676e-005	-0.000411318	0	
-9.77549e-006	-0.00129713	0	
-2.24863e-005	-0.000409666	0	
-1.89141e-005	-0.00129561	0	
-3.09517e-005	-0.000408048	0	
7.62145e-006	-0.00127336	0	
3.13458e-005	-0.000280934	0	
5.3515e-006	-0.00127219	0	
2.90318e-005	-0.000286046	0	
3.05937e-006	-0.00127075	0	
2.6752e-005	-0.0002909	0	
8.05243e-007	-0.00126905	0	
2.63929e-005	-0.00029614	0	
5.9e-006	-0.00127018	0	
2.88616e-005	-0.000303078	0	
9.30666e-006	-0.00127115	0	
2.87405e-005	-0.000316884	0	
1.43185e-005	-0.00127746	0	
2.68377e-005	-0.000321289	0	
9.65712e-006	-0.00127294	0	
2.4773e-005	-0.000328975	0	
4.61045e-006	-0.00127345	0	
2.087e-005	-0.000334746	0	
2.75011e-006	-0.00127416	0	
1.91445e-005	-0.00034027	0	
2.50215e-006	-0.00127504	0	
1.83269e-005	-0.000345738	0	
3.08438e-006	-0.00127609	0	
1.78304e-005	-0.000351284	0	
4.07832e-006	-0.00127732	0	
1.73199e-005	-0.000356983	0	
5.23233e-006	-0.00127869	0	
1.66134e-005	-0.000362863	0	
6.40179e-006	-0.00128017	0	
1.56217e-005	-0.000368917	0	
7.51074e-006	-0.00128175	0	
1.43023e-005	-0.000375114	0	
8.51976e-006	-0.00128342	0	
1.26426e-005	-0.000381392	0	
9.39195e-006	-0.0012852	0	
1.06563e-005	-0.000387629	0	
1.00816e-005	-0.00128714	0	
8.22979e-006	-0.000393723	0	
1.02739e-005	-0.0012893	0	
4.90359e-006	-0.000399499	0	
9.30384e-006	-0.00129132	0	
-3.24471e-008	-0.000404292	0	
6.6421e-006	-0.00129208	0	
-5.14522e-006	-0.000406608	0	
-4.12955e-007	-0.00129231	0	
-1.20686e-005	-0.000406597	0	
-8.08972e-006	-0.00129173	0	
-1.98729e-005	-0.000405851	0	
-1.68445e-005	-0.00129045	0	
-2.82494e-005	-0.000404525	0	
-2.71972e-005	-0.00128799	0	
3.66231e-005	-0.000277035	0	
7.26322e-006	-0.00127163	0	
3.4007e-005	-0.000282297	0	
4.67991e-006	-0.00127029	0	
3.14097e-005	-0.000287314	0	
2.09672e-006	-0.00126871	0	
2.88965e-005	-0.000292076	0	
1.19834e-006	-0.0012658	0	
3.3664e-005	-0.000293236	0	
8.22052e-006	-0.00127198	0	
3.53825e-005	-0.000311541	0	
6.99827e-006	-0.00126848	0	
3.22333e-005	-0.000314045	0	
8.39489e-006	-0.00127074	0	
2.89785e-005	-0.000321947	0	
6.26466e-006	-0.00126941	0	
2.52169e-005	-0.000328042	0	
3.47245e-006	-0.00127048	0	
2.2687e-005	-0.000334093	0	
2.70433e-006	-0.00127165	0	
2.14388e-005	-0.000339836	0	
3.04993e-006	-0.00127292	0	
2.07486e-005	-0.000345488	0	
3.97761e-006	-0.00127429	0	
2.01678e-005	-0.000351181	0	
5.15608e-006	-0.00127574	0	
1.94375e-005	-0.000356979	0	
6.38568e-006	-0.00127724	0	
1.84291e-005	-0.000362896	0	
7.55958e-006	-0.00127876	0	
1.70821e-005	-0.00036892	0	
8.6245e-006	-0.00128029	0	
1.53584e-005	-0.000375017	0	
9.552e-006	-0.00128185	0	
1.32568e-005	-0.000381124	0	
1.0288e-005	-0.00128343	0	
1.08284e-005	-0.000387046	0	
1.0799e-005	-0.00128514	0	
7.72241e-006	-0.000392732	0	
1.03589e-005	-0.0012869	0	
2.94959e-006	-0.00039779	0	
8.02225e-006	-0.00128786	0	
-2.34169e-006	-0.000400806	0	
1.83689e-006	-0.00128669	0	
-8.99888e-006	-0.00040169	0	
-6.01469e-006	-0.00128642	0	
-1.67401e-005	-0.000401521	0	
-1.4766e-005	-0.00128536	0	
-2.52839e-005	-0.000400679	0	
-2.46203e-005	-0.00128328	0	
-3.44137e-005	-0.000399827	0	
9.44717e-006	-0.00127087	0	
3.93037e-005	-0.000278305	0	
6.58311e-006	-0.00126965	0	
3.63914e-005	-0.000283481	0	
3.69492e-006	-0.00126817	0	
3.35296e-005	-0.000288409	0	
8.28377e-007	-0.00126643	0	
3.22612e-005	-0.000293555	0	
3.32384e-006	-0.0012654	0	
3.41871e-005	-0.000299499	0	
7.55461e-006	-0.00126583	0	
3.42265e-005	-0.000309484	0	
7.19743e-006	-0.00126758	0	
3.31515e-005	-0.000314768	0	
5.92016e-006	-0.00126694	0	
2.97129e-005	-0.000321699	0	
4.25523e-006	-0.00126693	0	
2.66347e-005	-0.000327749	0	
2.99187e-006	-0.00126813	0	
2.48381e-005	-0.000333735	0	
3.02584e-006	-0.00126953	0	
2.38725e-005	-0.000339518	0	
3.83065e-006	-0.00127105	0	
2.31859e-005	-0.000345237	0	
5.00072e-006	-0.00127263	0	
2.24222e-005	-0.000350983	0	
6.27033e-006	-0.00127419	0	
2.13982e-005	-0.000356792	0	
7.49205e-006	-0.0012757	0	
2.00376e-005	-0.000362662	0	
8.59739e-006	-0.00127715	0	
1.82963e-005	-0.000368579	0	
9.55021e-006	-0.00127856	0	
1.61223e-005	-0.000374518	0	
1.03436e-005	-0.00127992	0	
1.35475e-005	-0.000380441	0	
1.08849e-005	-0.00128128	0	
1.07168e-005	-0.000386	0	
1.11754e-005	-0.00128283	0	
6.44024e-006	-0.00039128	0	
9.47535e-006	-0.00128402	0	
8.01628e-007	-0.000394655	0	
3.37088e-006	-0.00128196	0	
-5.43531e-006	-0.000396479	0	
-3.73255e-006	-0.00128105	0	
-1.31323e-005	-0.000396918	0	
-1.24867e-005	-0.00128035	0	
-2.19422e-005	-0.000396481	0	
-2.21724e-005	-0.00127854	0	
-3.11195e-005	-0.000395806	0	
-3.27889e-005	-0.0012758	0	
4.49257e-005	-0.000274062	0	
8.76486e-006	-0.00126881	0	
4.16999e-005	-0.000279394	0	
5.58314e-006	-0.00126743	0	
3.85062e-005	-0.000284484	0	
2.40077e-006	-0.0012658	0	
3.53756e-005	-0.000289319	0	
1.48551e-006	-0.001265	0	
3.58397e-005	-0.000296058	0	
4.54901e-006	-0.00126531	0	
3.74424e-005	-0.000303028	0	
6.23285e-006	-0.00126434	0	
3.57237e-005	-0.000309467	0	
5.49799e-006	-0.00126476	0	
3.37063e-005	-0.000315384	0	
4.20654e-006	-0.00126429	0	
3.07255e-005	-0.000321666	0	
3.2215e-006	-0.00126482	0	
2.84724e-005	-0.000327624	0	
2.98714e-006	-0.00126612	0	
2.71791e-005	-0.000333479	0	
3.63763e-006	-0.00126769	0	
2.6359e-005	-0.000339217	0	
4.77743e-006	-0.00126938	0	
2.55599e-005	-0.000344923	0	
6.0769e-006	-0.00127104	0	
2.45224e-005	-0.000350642	0	
7.33561e-006	-0.00127259	0	
2.3148e-005	-0.000356377	0	
8.465e-006	-0.00127399	0	
2.14058e-005	-0.000362118	0	
9.43192e-006	-0.00127528	0	
1.92466e-005	-0.000367866	0	
1.02051e-005	-0.00127651	0	
1.65822e-005	-0.000373618	0	
1.08623e-005	-0.00127759	0	
1.35584e-005	-0.000379448	0	
1.12812e-005	-0.00127898	0	
1.05806e-005	-0.000384855	0	
1.09741e-005	-0.00128072	0	
4.40756e-006	-0.000388502	0	
4.37408e-006	-0.00127782	0	
-1.77337e-006	-0.000390682	0	
-1.73205e-006	-0.00127592	0	
-8.8799e-006	-0.000392045	0	
-9.96512e-006	-0.00127533	0	
-1.81185e-005	-0.00039198	0	
-1.96603e-005	-0.00127387	0	
-2.76398e-005	-0.000391579	0	
-3.00619e-005	-0.00127131	0	
-3.71967e-005	-0.000391185	0	
1.12265e-005	-0.00126778	0	
4.73372e-005	-0.000275052	0	
7.75197e-006	-0.0012665	0	
4.38204e-005	-0.000280297	0	
4.26831e-006	-0.00126496	0	
4.03487e-005	-0.000285302	0	
7.98704e-007	-0.0012632	0	
3.85332e-005	-0.000291225	0	
2.35354e-006	-0.00126378	0	
3.92496e-005	-0.000298025	0	
4.24264e-006	-0.00126322	0	
3.88489e-005	-0.000304178	0	
4.63279e-006	-0.00126245	0	
3.68262e-005	-0.000309945	0	
3.84126e-006	-0.00126218	0	
3.44789e-005	-0.000315811	0	
3.0461e-006	-0.00126211	0	
3.21483e-005	-0.000321738	0	
2.83106e-006	-0.00126291	0	
3.05856e-005	-0.000327523	0	
3.3628e-006	-0.00126433	0	
2.96359e-005	-0.000333222	0	
4.475e-006	-0.00126605	0	
2.8821e-005	-0.000338865	0	
5.81276e-006	-0.00126782	0	
2.77901e-005	-0.000344493	0	
7.114e-006	-0.00126945	0	
2.64027e-005	-0.000350108	0	
8.25657e-006	-0.00127084	0	
2.46483e-005	-0.000355685	0	
9.21683e-006	-0.00127202	0	
2.25205e-005	-0.00036122	0	
9.98256e-006	-0.00127307	0	
1.99391e-005	-0.000366755	0	
1.0498e-005	-0.00127409	0	
1.67752e-005	-0.000372327	0	
1.11532e-005	-0.0012748	0	
1.35037e-005	-0.000378231	0	
1.24749e-005	-0.00127752	0	
8.67227e-006	-0.000382245	0	
5.05383e-006	-0.00127396	0	
2.11927e-006	-0.000384707	0	
-8.8187e-007	-0.00127161	0	
-4.39803e-006	-0.000386551	0	
-7.02186e-006	-0.00126993	0	
-1.35269e-005	-0.000387144	0	
-1.69576e-005	-0.00126935	0	
-2.38677e-005	-0.000387083	0	
-2.73533e-005	-0.00126685	0	
-3.35894e-005	-0.000386874	0	
-3.8229e-005	-0.00126383	0	
5.33117e-005	-0.000270451	0	
1.01997e-005	-0.00126538	0	
4.94655e-005	-0.000275852	0	
6.41779e-006	-0.00126393	0	
4.56701e-005	-0.000281011	0	
2.63749e-006	-0.00126225	0	
4.19168e-005	-0.000285922	0	
1.1844e-006	-0.00126167	0	
4.16442e-005	-0.000292855	0	
2.37602e-006	-0.00126172	0	
4.13226e-005	-0.000299133	0	
3.19191e-006	-0.00126096	0	
3.98896e-005	-0.00030484	0	
3.05398e-006	-0.00126026	0	
3.77248e-005	-0.000310443	0	
2.54205e-006	-0.00125993	0	
3.55865e-005	-0.000316138	0	
2.39741e-006	-0.00126015	0	
3.3933e-005	-0.000321803	0	
2.92594e-006	-0.00126117	0	
3.29138e-005	-0.000327377	0	
4.05118e-006	-0.00126275	0	
3.21386e-005	-0.000332901	0	
5.46231e-006	-0.00126457	0	
3.11695e-005	-0.000338408	0	
6.83819e-006	-0.0012663	0	
2.97949e-005	-0.000343899	0	
8.00416e-006	-0.00126774	0	
2.80111e-005	-0.000349331	0	
8.934e-006	-0.00126883	0	
2.58831e-005	-0.000354661	0	
9.6661e-006	-0.0012697	0	
2.33878e-005	-0.000359921	0	
1.01704e-005	-0.00127046	0	
2.0403e-005	-0.000365216	0	
1.02808e-005	-0.00127123	0	
1.69258e-005	-0.000370693	0	
1.11593e-005	-0.00127118	0	
1.39609e-005	-0.000375545	0	