# vtk DataFile Version 4.1
vtk output
ASCII
DATASET UNSTRUCTURED_GRID

POINTS	12261	float
0	0	0	
0	1	0	
0	2	0	
0	3	0	
0	4	0	
0	5	0	
0	6	0	
0	7	0	
0	8	0	
0	9	0	
0	10	0	
0	11	0	
0	12	0	
0	13	0	
0	14	0	
0	15	0	
0	16	0	
0	17	0	
0	18	0	
0	19	0	
0	20	0	
0	21	0	
0	22	0	
0	23	0	
0	24	0	
0	25	0	
0	26	0	
0	27	0	
0	28	0	
0	29	0	
0	30	0	
0	31	0	
0	32	0	
0	33	0	
0	34	0	
0	35	0	
0	36	0	
0	37	0	
0	38	0	
0	39	0	
0	40	0	
0	41	0	
0	42	0	
0	43	0	
0	44	0	
0	45	0	
0	46	0	
0	47	0	
0	48	0	
0	49	0	
0	50	0	
1	0	0	
1	1	0	
1	2	0	
1	3	0	
1	4	0	
1	5	0	
1	6	0	
1	7	0	
1	8	0	
1	9	0	
1	10	0	
1	11	0	
1	12	0	
1	13	0	
1	14	0	
1	15	0	
1	16	0	
1	17	0	
1	18	0	
1	19	0	
1	20	0	
1	21	0	
1	22	0	
1	23	0	
1	24	0	
1	25	0	
1	26	0	
1	27	0	
1	28	0	
1	29	0	
1	30	0	
1	31	0	
1	32	0	
1	33	0	
1	34	0	
1	35	0	
1	36	0	
1	37	0	
1	38	0	
1	39	0	
1	40	0	
1	41	0	
1	42	0	
1	43	0	
1	44	0	
1	45	0	
1	46	0	
1	47	0	
1	48	0	
1	49	0	
1	50	0	
2	0	0	
2	1	0	
2	2	0	
2	3	0	
2	4	0	
2	5	0	
2	6	0	
2	7	0	
2	8	0	
2	9	0	
2	10	0	
2	11	0	
2	12	0	
2	13	0	
2	14	0	
2	15	0	
2	16	0	
2	17	0	
2	18	0	
2	19	0	
2	20	0	
2	21	0	
2	22	0	
2	23	0	
2	24	0	
2	25	0	
2	26	0	
2	27	0	
2	28	0	
2	29	0	
2	30	0	
2	31	0	
2	32	0	
2	33	0	
2	34	0	
2	35	0	
2	36	0	
2	37	0	
2	38	0	
2	39	0	
2	40	0	
2	41	0	
2	42	0	
2	43	0	
2	44	0	
2	45	0	
2	46	0	
2	47	0	
2	48	0	
2	49	0	
2	50	0	
3	0	0	
3	1	0	
3	2	0	
3	3	0	
3	4	0	
3	5	0	
3	6	0	
3	7	0	
3	8	0	
3	9	0	
3	10	0	
3	11	0	
3	12	0	
3	13	0	
3	14	0	
3	15	0	
3	16	0	
3	17	0	
3	18	0	
3	19	0	
3	20	0	
3	21	0	
3	22	0	
3	23	0	
3	24	0	
3	25	0	
3	26	0	
3	27	0	
3	28	0	
3	29	0	
3	30	0	
3	31	0	
3	32	0	
3	33	0	
3	34	0	
3	35	0	
3	36	0	
3	37	0	
3	38	0	
3	39	0	
3	40	0	
3	41	0	
3	42	0	
3	43	0	
3	44	0	
3	45	0	
3	46	0	
3	47	0	
3	48	0	
3	49	0	
3	50	0	
4	0	0	
4	1	0	
4	2	0	
4	3	0	
4	4	0	
4	5	0	
4	6	0	
4	7	0	
4	8	0	
4	9	0	
4	10	0	
4	11	0	
4	12	0	
4	13	0	
4	14	0	
4	15	0	
4	16	0	
4	17	0	
4	18	0	
4	19	0	
4	20	0	
4	21	0	
4	22	0	
4	23	0	
4	24	0	
4	25	0	
4	26	0	
4	27	0	
4	28	0	
4	29	0	
4	30	0	
4	31	0	
4	32	0	
4	33	0	
4	34	0	
4	35	0	
4	36	0	
4	37	0	
4	38	0	
4	39	0	
4	40	0	
4	41	0	
4	42	0	
4	43	0	
4	44	0	
4	45	0	
4	46	0	
4	47	0	
4	48	0	
4	49	0	
4	50	0	
5	0	0	
5	1	0	
5	2	0	
5	3	0	
5	4	0	
5	5	0	
5	6	0	
5	7	0	
5	8	0	
5	9	0	
5	10	0	
5	11	0	
5	12	0	
5	13	0	
5	14	0	
5	15	0	
5	16	0	
5	17	0	
5	18	0	
5	19	0	
5	20	0	
5	21	0	
5	22	0	
5	23	0	
5	24	0	
5	25	0	
5	26	0	
5	27	0	
5	28	0	
5	29	0	
5	30	0	
5	31	0	
5	32	0	
5	33	0	
5	34	0	
5	35	0	
5	36	0	
5	37	0	
5	38	0	
5	39	0	
5	40	0	
5	41	0	
5	42	0	
5	43	0	
5	44	0	
5	45	0	
5	46	0	
5	47	0	
5	48	0	
5	49	0	
5	50	0	
6	0	0	
6	1	0	
6	2	0	
6	3	0	
6	4	0	
6	5	0	
6	6	0	
6	7	0	
6	8	0	
6	9	0	
6	10	0	
6	11	0	
6	12	0	
6	13	0	
6	14	0	
6	15	0	
6	16	0	
6	17	0	
6	18	0	
6	19	0	
6	20	0	
6	21	0	
6	22	0	
6	23	0	
6	24	0	
6	25	0	
6	26	0	
6	27	0	
6	28	0	
6	29	0	
6	30	0	
6	31	0	
6	32	0	
6	33	0	
6	34	0	
6	35	0	
6	36	0	
6	37	0	
6	38	0	
6	39	0	
6	40	0	
6	41	0	
6	42	0	
6	43	0	
6	44	0	
6	45	0	
6	46	0	
6	47	0	
6	48	0	
6	49	0	
6	50	0	
7	0	0	
7	1	0	
7	2	0	
7	3	0	
7	4	0	
7	5	0	
7	6	0	
7	7	0	
7	8	0	
7	9	0	
7	10	0	
7	11	0	
7	12	0	
7	13	0	
7	14	0	
7	15	0	
7	16	0	
7	17	0	
7	18	0	
7	19	0	
7	20	0	
7	21	0	
7	22	0	
7	23	0	
7	24	0	
7	25	0	
7	26	0	
7	27	0	
7	28	0	
7	29	0	
7	30	0	
7	31	0	
7	32	0	
7	33	0	
7	34	0	
7	35	0	
7	36	0	
7	37	0	
7	38	0	
7	39	0	
7	40	0	
7	41	0	
7	42	0	
7	43	0	
7	44	0	
7	45	0	
7	46	0	
7	47	0	
7	48	0	
7	49	0	
7	50	0	
8	0	0	
8	1	0	
8	2	0	
8	3	0	
8	4	0	
8	5	0	
8	6	0	
8	7	0	
8	8	0	
8	9	0	
8	10	0	
8	11	0	
8	12	0	
8	13	0	
8	14	0	
8	15	0	
8	16	0	
8	17	0	
8	18	0	
8	19	0	
8	20	0	
8	21	0	
8	22	0	
8	23	0	
8	24	0	
8	25	0	
8	26	0	
8	27	0	
8	28	0	
8	29	0	
8	30	0	
8	31	0	
8	32	0	
8	33	0	
8	34	0	
8	35	0	
8	36	0	
8	37	0	
8	38	0	
8	39	0	
8	40	0	
8	41	0	
8	42	0	
8	43	0	
8	44	0	
8	45	0	
8	46	0	
8	47	0	
8	48	0	
8	49	0	
8	50	0	
9	0	0	
9	1	0	
9	2	0	
9	3	0	
9	4	0	
9	5	0	
9	6	0	
9	7	0	
9	8	0	
9	9	0	
9	10	0	
9	11	0	
9	12	0	
9	13	0	
9	14	0	
9	15	0	
9	16	0	
9	17	0	
9	18	0	
9	19	0	
9	20	0	
9	21	0	
9	22	0	
9	23	0	
9	24	0	
9	25	0	
9	26	0	
9	27	0	
9	28	0	
9	29	0	
9	30	0	
9	31	0	
9	32	0	
9	33	0	
9	34	0	
9	35	0	
9	36	0	
9	37	0	
9	38	0	
9	39	0	
9	40	0	
9	41	0	
9	42	0	
9	43	0	
9	44	0	
9	45	0	
9	46	0	
9	47	0	
9	48	0	
9	49	0	
9	50	0	
10	0	0	
10	1	0	
10	2	0	
10	3	0	
10	4	0	
10	5	0	
10	6	0	
10	7	0	
10	8	0	
10	9	0	
10	10	0	
10	11	0	
10	12	0	
10	13	0	
10	14	0	
10	15	0	
10	16	0	
10	17	0	
10	18	0	
10	19	0	
10	20	0	
10	21	0	
10	22	0	
10	23	0	
10	24	0	
10	25	0	
10	26	0	
10	27	0	
10	28	0	
10	29	0	
10	30	0	
10	31	0	
10	32	0	
10	33	0	
10	34	0	
10	35	0	
10	36	0	
10	37	0	
10	38	0	
10	39	0	
10	40	0	
10	41	0	
10	42	0	
10	43	0	
10	44	0	
10	45	0	
10	46	0	
10	47	0	
10	48	0	
10	49	0	
10	50	0	
11	0	0	
11	1	0	
11	2	0	
11	3	0	
11	4	0	
11	5	0	
11	6	0	
11	7	0	
11	8	0	
11	9	0	
11	10	0	
11	11	0	
11	12	0	
11	13	0	
11	14	0	
11	15	0	
11	16	0	
11	17	0	
11	18	0	
11	19	0	
11	20	0	
11	21	0	
11	22	0	
11	23	0	
11	24	0	
11	25	0	
11	26	0	
11	27	0	
11	28	0	
11	29	0	
11	30	0	
11	31	0	
11	32	0	
11	33	0	
11	34	0	
11	35	0	
11	36	0	
11	37	0	
11	38	0	
11	39	0	
11	40	0	
11	41	0	
11	42	0	
11	43	0	
11	44	0	
11	45	0	
11	46	0	
11	47	0	
11	48	0	
11	49	0	
11	50	0	
12	0	0	
12	1	0	
12	2	0	
12	3	0	
12	4	0	
12	5	0	
12	6	0	
12	7	0	
12	8	0	
12	9	0	
12	10	0	
12	11	0	
12	12	0	
12	13	0	
12	14	0	
12	15	0	
12	16	0	
12	17	0	
12	18	0	
12	19	0	
12	20	0	
12	21	0	
12	22	0	
12	23	0	
12	24	0	
12	25	0	
12	26	0	
12	27	0	
12	28	0	
12	29	0	
12	30	0	
12	31	0	
12	32	0	
12	33	0	
12	34	0	
12	35	0	
12	36	0	
12	37	0	
12	38	0	
12	39	0	
12	40	0	
12	41	0	
12	42	0	
12	43	0	
12	44	0	
12	45	0	
12	46	0	
12	47	0	
12	48	0	
12	49	0	
12	50	0	
13	0	0	
13	1	0	
13	2	0	
13	3	0	
13	4	0	
13	5	0	
13	6	0	
13	7	0	
13	8	0	
13	9	0	
13	10	0	
13	11	0	
13	12	0	
13	13	0	
13	14	0	
13	15	0	
13	16	0	
13	17	0	
13	18	0	
13	19	0	
13	20	0	
13	21	0	
13	22	0	
13	23	0	
13	24	0	
13	25	0	
13	26	0	
13	27	0	
13	28	0	
13	29	0	
13	30	0	
13	31	0	
13	32	0	
13	33	0	
13	34	0	
13	35	0	
13	36	0	
13	37	0	
13	38	0	
13	39	0	
13	40	0	
13	41	0	
13	42	0	
13	43	0	
13	44	0	
13	45	0	
13	46	0	
13	47	0	
13	48	0	
13	49	0	
13	50	0	
14	0	0	
14	1	0	
14	2	0	
14	3	0	
14	4	0	
14	5	0	
14	6	0	
14	7	0	
14	8	0	
14	9	0	
14	10	0	
14	11	0	
14	12	0	
14	13	0	
14	14	0	
14	15	0	
14	16	0	
14	17	0	
14	18	0	
14	19	0	
14	20	0	
14	21	0	
14	22	0	
14	23	0	
14	24	0	
14	25	0	
14	26	0	
14	27	0	
14	28	0	
14	29	0	
14	30	0	
14	31	0	
14	32	0	
14	33	0	
14	34	0	
14	35	0	
14	36	0	
14	37	0	
14	38	0	
14	39	0	
14	40	0	
14	41	0	
14	42	0	
14	43	0	
14	44	0	
14	45	0	
14	46	0	
14	47	0	
14	48	0	
14	49	0	
14	50	0	
15	0	0	
15	1	0	
15	2	0	
15	3	0	
15	4	0	
15	5	0	
15	6	0	
15	7	0	
15	8	0	
15	9	0	
15	10	0	
15	11	0	
15	12	0	
15	13	0	
15	14	0	
15	15	0	
15	16	0	
15	17	0	
15	18	0	
15	19	0	
15	20	0	
15	21	0	
15	22	0	
15	23	0	
15	24	0	
15	25	0	
15	26	0	
15	27	0	
15	28	0	
15	29	0	
15	30	0	
15	31	0	
15	32	0	
15	33	0	
15	34	0	
15	35	0	
15	36	0	
15	37	0	
15	38	0	
15	39	0	
15	40	0	
15	41	0	
15	42	0	
15	43	0	
15	44	0	
15	45	0	
15	46	0	
15	47	0	
15	48	0	
15	49	0	
15	50	0	
16	0	0	
16	1	0	
16	2	0	
16	3	0	
16	4	0	
16	5	0	
16	6	0	
16	7	0	
16	8	0	
16	9	0	
16	10	0	
16	11	0	
16	12	0	
16	13	0	
16	14	0	
16	15	0	
16	16	0	
16	17	0	
16	18	0	
16	19	0	
16	20	0	
16	21	0	
16	22	0	
16	23	0	
16	24	0	
16	25	0	
16	26	0	
16	27	0	
16	28	0	
16	29	0	
16	30	0	
16	31	0	
16	32	0	
16	33	0	
16	34	0	
16	35	0	
16	36	0	
16	37	0	
16	38	0	
16	39	0	
16	40	0	
16	41	0	
16	42	0	
16	43	0	
16	44	0	
16	45	0	
16	46	0	
16	47	0	
16	48	0	
16	49	0	
16	50	0	
17	0	0	
17	1	0	
17	2	0	
17	3	0	
17	4	0	
17	5	0	
17	6	0	
17	7	0	
17	8	0	
17	9	0	
17	10	0	
17	11	0	
17	12	0	
17	13	0	
17	14	0	
17	15	0	
17	16	0	
17	17	0	
17	18	0	
17	19	0	
17	20	0	
17	21	0	
17	22	0	
17	23	0	
17	24	0	
17	25	0	
17	26	0	
17	27	0	
17	28	0	
17	29	0	
17	30	0	
17	31	0	
17	32	0	
17	33	0	
17	34	0	
17	35	0	
17	36	0	
17	37	0	
17	38	0	
17	39	0	
17	40	0	
17	41	0	
17	42	0	
17	43	0	
17	44	0	
17	45	0	
17	46	0	
17	47	0	
17	48	0	
17	49	0	
17	50	0	
18	0	0	
18	1	0	
18	2	0	
18	3	0	
18	4	0	
18	5	0	
18	6	0	
18	7	0	
18	8	0	
18	9	0	
18	10	0	
18	11	0	
18	12	0	
18	13	0	
18	14	0	
18	15	0	
18	16	0	
18	17	0	
18	18	0	
18	19	0	
18	20	0	
18	21	0	
18	22	0	
18	23	0	
18	24	0	
18	25	0	
18	26	0	
18	27	0	
18	28	0	
18	29	0	
18	30	0	
18	31	0	
18	32	0	
18	33	0	
18	34	0	
18	35	0	
18	36	0	
18	37	0	
18	38	0	
18	39	0	
18	40	0	
18	41	0	
18	42	0	
18	43	0	
18	44	0	
18	45	0	
18	46	0	
18	47	0	
18	48	0	
18	49	0	
18	50	0	
19	0	0	
19	1	0	
19	2	0	
19	3	0	
19	4	0	
19	5	0	
19	6	0	
19	7	0	
19	8	0	
19	9	0	
19	10	0	
19	11	0	
19	12	0	
19	13	0	
19	14	0	
19	15	0	
19	16	0	
19	17	0	
19	18	0	
19	19	0	
19	20	0	
19	21	0	
19	22	0	
19	23	0	
19	24	0	
19	25	0	
19	26	0	
19	27	0	
19	28	0	
19	29	0	
19	30	0	
19	31	0	
19	32	0	
19	33	0	
19	34	0	
19	35	0	
19	36	0	
19	37	0	
19	38	0	
19	39	0	
19	40	0	
19	41	0	
19	42	0	
19	43	0	
19	44	0	
19	45	0	
19	46	0	
19	47	0	
19	48	0	
19	49	0	
19	50	0	
20	0	0	
20	1	0	
20	2	0	
20	3	0	
20	4	0	
20	5	0	
20	6	0	
20	7	0	
20	8	0	
20	9	0	
20	10	0	
20	11	0	
20	12	0	
20	13	0	
20	14	0	
20	15	0	
20	16	0	
20	17	0	
20	18	0	
20	19	0	
20	20	0	
20	21	0	
20	22	0	
20	23	0	
20	24	0	
20	25	0	
20	26	0	
20	27	0	
20	28	0	
20	29	0	
20	30	0	
20	31	0	
20	32	0	
20	33	0	
20	34	0	
20	35	0	
20	36	0	
20	37	0	
20	38	0	
20	39	0	
20	40	0	
20	41	0	
20	42	0	
20	43	0	
20	44	0	
20	45	0	
20	46	0	
20	47	0	
20	48	0	
20	49	0	
20	50	0	
21	0	0	
21	1	0	
21	2	0	
21	3	0	
21	4	0	
21	5	0	
21	6	0	
21	7	0	
21	8	0	
21	9	0	
21	10	0	
21	11	0	
21	12	0	
21	13	0	
21	14	0	
21	15	0	
21	16	0	
21	17	0	
21	18	0	
21	19	0	
21	20	0	
21	21	0	
21	22	0	
21	23	0	
21	24	0	
21	25	0	
21	26	0	
21	27	0	
21	28	0	
21	29	0	
21	30	0	
21	31	0	
21	32	0	
21	33	0	
21	34	0	
21	35	0	
21	36	0	
21	37	0	
21	38	0	
21	39	0	
21	40	0	
21	41	0	
21	42	0	
21	43	0	
21	44	0	
21	45	0	
21	46	0	
21	47	0	
21	48	0	
21	49	0	
21	50	0	
22	0	0	
22	1	0	
22	2	0	
22	3	0	
22	4	0	
22	5	0	
22	6	0	
22	7	0	
22	8	0	
22	9	0	
22	10	0	
22	11	0	
22	12	0	
22	13	0	
22	14	0	
22	15	0	
22	16	0	
22	17	0	
22	18	0	
22	19	0	
22	20	0	
22	21	0	
22	22	0	
22	23	0	
22	24	0	
22	25	0	
22	26	0	
22	27	0	
22	28	0	
22	29	0	
22	30	0	
22	31	0	
22	32	0	
22	33	0	
22	34	0	
22	35	0	
22	36	0	
22	37	0	
22	38	0	
22	39	0	
22	40	0	
22	41	0	
22	42	0	
22	43	0	
22	44	0	
22	45	0	
22	46	0	
22	47	0	
22	48	0	
22	49	0	
22	50	0	
23	0	0	
23	1	0	
23	2	0	
23	3	0	
23	4	0	
23	5	0	
23	6	0	
23	7	0	
23	8	0	
23	9	0	
23	10	0	
[...]
POINT_DATA	12261
VECTORS u float
5.709e-010	5.30926e-010	0	
1.08262e-009	9.88228e-010	0	
1.07727e-009	9.76475e-010	0	
1.06339e-009	9.73165e-010	0	
1.04074e-009	9.68176e-010	0	
5.97195e-010	4.65292e-010	0	
7.6396e-011	-7.90826e-011	0	
1.72194e-012	6.50442e-011	0	
5.79311e-010	2.29188e-010	0	
4.45064e-010	3.03721e-010	0	
3.19589e-010	2.25169e-010	0	
4.59699e-010	2.52345e-010	0	
4.3174e-010	2.54467e-010	0	
6.43262e-010	3.26974e-010	0	
4.04752e-010	2.53951e-010	0	
5.27849e-010	2.87401e-010	0	
1.01694e-010	1.94003e-010	0	
1.36076e-010	1.74874e-010	0	
2.60056e-010	2.04192e-010	0	
2.48092e-010	2.22709e-010	0	
2.50084e-011	2.26677e-010	0	
1.32827e-010	2.35777e-010	0	
1.39632e-010	2.56423e-010	0	
-4.08378e-011	2.7847e-010	0	
-7.35192e-011	2.77881e-010	0	
7.99643e-011	2.7553e-010	0	
1.36523e-010	2.94435e-010	0	
3.13365e-011	2.73774e-010	0	
-5.0576e-011	2.40682e-010	0	
4.5615e-011	2.23372e-010	0	
1.57335e-011	1.88975e-010	0	
1.13248e-011	1.63781e-010	0	
-9.33206e-012	1.47584e-010	0	
-1.37312e-010	1.35421e-010	0	
-9.77214e-011	1.32757e-010	0	
-2.21167e-010	1.55905e-010	0	
-3.98717e-010	2.04389e-010	0	
-4.66999e-010	2.29133e-010	0	
-3.09765e-010	1.7715e-010	0	
-3.81642e-010	1.9385e-010	0	
-2.73502e-010	1.63158e-010	0	
-2.59037e-010	2.53288e-010	0	
-3.39051e-010	1.52503e-010	0	
6.89119e-011	5.74607e-011	0	
1.39337e-010	-1.36939e-011	0	
4.55538e-010	4.67779e-010	0	
1.00954e-009	9.76154e-010	0	
1.00704e-009	9.75273e-010	0	
9.92836e-010	9.74816e-010	0	
9.65281e-010	9.81489e-010	0	
4.55695e-010	5.31094e-010	0	
5.62408	1.76733	0	
3.26638	0.42975	0	
2.48025	-0.0523882	0	
1.96676	-0.329863	0	
1.26943	-0.702163	0	
-0.135352	-0.693271	0	
-1.99178	-0.189617	0	
0.360839	2.74274	0	
10.5279	18.9025	0	
14.5417	28.6005	0	
13.3777	31.8601	0	
19.3385	36.361	0	
19.0656	37.5379	0	
21.122	36.6526	0	
17.1188	34.2589	0	
17.3063	34.2442	0	
10.577	34.4807	0	
10.2163	37.385	0	
11.9273	39.1663	0	
11.1815	39.1439	0	
5.01457	39.6183	0	
6.78069	41.6511	0	
5.7498	42.7947	0	
0.900443	43.9672	0	
-1.08523	45.2649	0	
2.42433	45.5875	0	
3.82504	44.6662	0	
0.76178	42.5064	0	
-1.23943	39.5444	0	
0.657128	35.902	0	
-0.450691	32.5467	0	
-0.933349	30.12	0	
-3.1838	28.3225	0	
-6.70571	27.0739	0	
-7.40226	24.8633	0	
-9.58705	22.6849	0	
-12.3346	22.6496	0	
-15.7445	25.5726	0	
-14.1664	27.1559	0	
-15.5363	26.9215	0	
-10.9754	23.5295	0	
-10.74	20.3225	0	
-6.41528	13.8476	0	
0.971113	1.6395	0	
3.32269	0.0272785	0	
0.99627	-0.317806	0	
-0.406922	-0.49183	0	
-0.860164	-0.217465	0	
-1.37519	0.0458267	0	
-2.47157	0.417531	0	
-5.26561	1.50112	0	
9.34072	5.63852	0	
6.27679	4.34176	0	
4.62468	3.5051	0	
3.45588	3.078	0	
2.25023	2.88639	0	
0.411798	2.70745	0	
-2.29739	2.5987	0	
-0.0791154	1.97994	0	
8.811	26.8604	0	
16.3494	41.7778	0	
21.6322	51.8189	0	
32.2277	63.6444	0	
34.1342	69.2673	0	
38.8622	73.7744	0	
35.9675	73.1804	0	
31.4122	72.0023	0	
27.1814	72.8239	0	
23.3908	75.5843	0	
24.0207	79.6303	0	
21.7769	81.9815	0	
14.2607	82.2341	0	
15.3085	84.9188	0	
10.5071	86.5603	0	
5.3459	87.5693	0	
2.03632	90.8491	0	
3.28363	91.5417	0	
3.91451	86.6344	0	
1.74382	81.8835	0	
-0.845597	77.7401	0	
-0.039073	71.8584	0	
-2.31098	66.8826	0	
-4.84661	62.1158	0	
-8.55473	57.4643	0	
-12.9326	53.3949	0	
-16.953	50.3294	0	
-20.477	49.6936	0	
-25.5677	52.6598	0	
-30.3399	54.8896	0	
-26.3291	51.8893	0	
-25.3601	47.9071	0	
-17.6522	38.712	0	
-12.3992	29.3924	0	
-3.40079	15.9197	0	
1.32749	2.0513	0	
3.45025	2.89448	0	
0.569538	3.05421	0	
-1.2672	3.12486	0	
-2.32965	3.3207	0	
-3.50387	3.77807	0	
-5.37134	4.6522	0	
-8.7622	5.86736	0	
12.2747	9.48688	0	
9.01963	8.36114	0	
6.65308	7.54008	0	
4.85209	7.145	0	
3.23483	7.09291	0	
1.31558	7.03006	0	
-1.99946	6.76799	0	
-1.17795	19.7586	0	
6.14049	34.5089	0	
14.4507	46.5435	0	
24.3944	62.1895	0	
35.6481	77.6339	0	
42.2105	89.0962	0	
50.6901	101.531	0	
52.5598	109.08	0	
46.7758	110.949	0	
43.1366	111.473	0	
38.2507	113.52	0	
35.1328	117.838	0	
31.163	122.541	0	
26.7545	127.805	0	
24.0423	132.417	0	
18.2188	136.095	0	
13.418	141.19	0	
7.80997	141.889	0	
4.18842	139.655	0	
3.23008	134.354	0	
3.54591	125.25	0	
0.761749	116.343	0	
-0.639331	108.299	0	
-5.81878	100.791	0	
-10.0623	93.4289	0	
-14.8179	88.0031	0	
-20.9503	84.6366	0	
-29.679	83.6528	0	
-33.7184	83.9089	0	
-38.9471	83.7035	0	
-40.0928	78.7872	0	
-33.427	69.0267	0	
-27.9168	59.6693	0	
-19.7028	47.7981	0	
-10.0452	33.779	0	
-2.28007	22.7919	0	
-0.0412079	15.5996	0	
2.98858	7.1042	0	
-0.360826	7.38729	0	
-2.27	7.43198	0	
-3.83807	7.49803	0	
-5.64231	7.93557	0	
-8.09957	8.78576	0	
-11.474	9.87287	0	
14.8294	13.2743	0	
11.3552	12.3039	0	
8.48985	11.5947	0	
6.11676	11.3256	0	
4.13373	11.4659	0	
2.26687	11.8715	0	
0.38067	12.5166	0	
0.331225	13.4098	0	
4.61806	34.144	0	
12.2028	48.4594	0	
22.9604	65.4399	0	
34.6043	83.9288	0	
44.8717	101.523	0	
55.454	118.727	0	
61.1001	132.296	0	
59.8418	141.871	0	
60.1896	150.978	0	
55.3916	154.571	0	
47.8096	158.045	0	
43.306	164.483	0	
38.8426	171.077	0	
34.6154	179.465	0	
31.2572	191.043	0	
26.5278	203.175	0	
15.7554	212.197	0	
7.55233	211.023	0	
4.62327	195.857	0	
5.04816	172.584	0	
1.89342	154.229	0	
-2.35084	140.654	0	
-10.2922	132.963	0	
-17.4271	127.078	0	
-23.6914	121.9	0	
-31.3751	118.77	0	
-41.7459	117.538	0	
-44.2826	112.189	0	
-46.247	105.102	0	
-44.2041	95.4641	0	
-35.9769	81.2299	0	
-27.3197	66.4432	0	
-18.4995	52.4392	0	
-8.62882	37.97	0	
-3.40002	28.7847	0	
0.427725	13.8249	0	
0.484071	12.9111	0	
-1.36704	12.2597	0	
-3.21945	11.8524	0	
-5.17943	11.7315	0	
-7.5344	12.0351	0	
-10.4002	12.7565	0	
-13.8755	13.6909	0	
17.0858	17.0734	0	
13.456	16.1778	0	
10.1637	15.499	0	
7.10737	15.2251	0	
4.85138	15.5423	0	
3.08335	15.8864	0	
1.85118	16.2146	0	
1.2175	16.9314	0	
1.07542	17.752	0	
8.25158	40.4498	0	
18.3797	61.0181	0	
30.3712	83.2421	0	
42.5525	104.626	0	
54.7217	125.503	0	
64.0178	146.153	0	
68.5518	163.548	0	
73.1609	180.555	0	
71.5808	191.993	0	
62.586	196.793	0	
57.0617	202.934	0	
51.3468	211.677	0	
49.588	225.335	0	
46.9736	244.169	0	
45.7578	268.284	0	
23.0543	272.607	0	
14.4869	261.689	0	
11.7244	241.833	0	
5.86117	215.07	0	
0.280472	191.528	0	
-8.04182	177.24	0	
-17.4432	167.955	0	
-26.9176	161.926	0	
-35.5624	157.299	0	
-44.3062	152.871	0	
-52.1476	146.089	0	
-51.2539	132.18	0	
-49.2314	119.271	0	
-43.9818	104.874	0	
-34.3165	86.8054	0	
-24.5077	68.62	0	
-14.9743	51.4508	0	
-6.38724	35.0054	0	
-0.391204	18.2004	0	
-0.48005	17.3592	0	
-1.04934	16.6243	0	
-2.23781	16.2918	0	
-3.98962	15.9422	0	
-6.23682	15.6227	0	
-9.24227	15.9121	0	
-12.4553	16.5837	0	
-15.9988	17.4396	0	
19.2124	20.8805	0	
15.4415	20.0153	0	
11.8011	19.2726	0	
7.99202	18.7594	0	
5.68002	19.135	0	
3.84655	19.5592	0	
2.71294	19.7867	0	
2.17617	20.0644	0	
1.8636	20.7048	0	
1.89054	21.4152	0	
11.0228	44.8292	0	
22.5485	72.3997	0	
36.1409	96.4157	0	
49.744	121.376	0	
61.66	150.399	0	
70.7332	173.291	0	
78.291	193.529	0	
83.0322	216.428	0	
80.6368	230.558	0	
77.7607	243.488	0	
72.3631	255.338	0	
70.7876	271.7	0	
69.9117	296.458	0	
65.3978	325.737	0	
41.8232	341.629	0	
30.8542	343.245	0	
20.4251	290.961	0	
1.29594	260.008	0	
-5.9852	229.509	0	
-18.2605	215.661	0	
-30.5657	206.741	0	
-40.725	198.148	0	
-49.1757	188.544	0	
-55.7136	177.332	0	
-57.5892	161.544	0	
-53.5992	143.181	0	
-48.1829	125.236	0	
-39.9365	104.548	0	
-29.1925	82.8521	0	
-18.7408	62.5333	0	
-9.29452	39.7172	0	
-1.27467	21.922	0	
-1.20002	21.1869	0	
-1.46483	20.521	0	
-1.94845	20.2321	0	
-3.04047	19.9991	0	
-4.85959	19.5531	0	
-7.20077	19.0817	0	
-10.8976	19.5672	0	
-14.389	20.2878	0	
-17.9917	21.1124	0	
21.2911	24.7541	0	
17.3883	23.8961	0	
13.5367	23.1083	0	
9.67302	22.403	0	
6.69613	23.1421	0	
4.59233	23.0693	0	
3.51636	23.0467	0	
2.99869	23.1269	0	
2.74965	23.3282	0	
2.55693	23.8612	0	
2.51638	24.4543	0	
12.363	49.3043	0	
26.5163	76.7235	0	
40.157	107.074	0	
53.894	140.37	0	
67.2548	167.898	0	
77.9229	193.066	0	
87.0041	224	0	
91.9718	244.225	0	
95.2359	263.323	0	
95.7727	283.803	0	
93.5643	303.002	0	
90.6024	327.661	0	
79.3634	352.596	0	
60.364	370.262	0	
41.6466	370.372	0	
15.5192	338.95	0	
-10.9859	305.233	0	
-20.6564	269.659	0	
-31.4023	248.466	0	
-44.209	235.64	0	
-55.0455	221.841	0	
-60.2126	205.07	0	
-61.2436	188.165	0	
-58.1761	163.437	0	
-51.7807	142.624	0	
-42.9009	120.066	0	
-32.198	93.5527	0	
-21.4603	67.7475	0	
-10.5026	45.1657	0	
-2.02472	25.0457	0	
-1.96929	24.4159	0	
-2.10347	23.8438	0	
-2.30812	23.6168	0	
-2.78873	23.5312	0	
-3.82598	23.5613	0	
-5.92083	23.6403	0	
-9.04134	22.4241	0	
-12.6559	23.1518	0	
-16.2895	23.9318	0	
-19.9487	24.7562	0	
23.3588	28.7339	0	
19.3243	27.8768	0	
15.3046	27.081	0	
11.289	26.35	0	
6.65688	25.5678	0	
5.15241	25.6895	0	
4.3023	25.837	0	
3.82947	25.8758	0	
3.53067	25.9431	0	
3.31779	26.1617	0	
3.07925	26.6603	0	
2.92377	27.1882	0	
13.898	53.1103	0	
27.1346	83.9128	0	
42.7715	116.251	0	
58.5119	148.515	0	
71.9512	180.764	0	
84.4844	212.963	0	
95.717	238.397	0	
103.966	262.024	0	
108.473	287.531	0	
108.129	312.035	0	
102.507	334.499	0	
87.1965	356.521	0	
64.6765	370.214	0	
46.8218	369.163	0	
14.6746	353.142	0	
-17.2033	325.278	0	
-38.7376	295.836	0	
-51.6358	272.8	0	
-60.8996	249.982	0	
-66.2032	226.692	0	
-66.2051	205.081	0	
-61.7233	183.962	0	
-55.2643	155.164	0	
-46.1077	128.212	0	
-34.4286	99.7887	0	
-21.93	72.3884	0	
-11.4408	49.4465	0	
-2.63376	27.8244	0	
-2.62618	27.2623	0	
-2.75267	26.733	0	
-2.88181	26.4859	0	
-3.15664	26.3858	0	
-3.61969	26.3473	0	
-4.41848	26.2002	0	
-5.88182	26.0709	0	
-10.7396	26.0485	0	
-14.4476	26.7979	0	
-18.1938	27.5909	0	
-21.9254	28.4265	0	
25.4223	32.8408	0	
21.2544	31.9846	0	
17.0927	31.1881	0	
12.9262	30.4528	0	
9.54119	31.0015	0	
5.46651	27.6576	0	
4.98802	28.0205	0	
4.6644	28.3203	0	
4.31665	28.4083	0	
3.96701	28.5786	0	
3.7316	28.8234	0	
3.42758	29.2524	0	
3.18796	29.7014	0	
14.4981	57.483	0	
29.6701	87.9321	0	
45.5509	120.013	0	
61.1382	154.118	0	
77.1872	188.607	0	
92.817	217.648	0	
104.714	246.396	0	
112.471	276.109	0	
113.884	305.839	0	
106.925	330.58	0	
88.8086	350.357	0	
65.8216	362.207	0	
48.5935	362.075	0	
15.5334	349.76	0	
-21.2248	328.363	0	
-47.3503	302.955	0	
-61.3744	277.145	0	
-68.2609	247.669	0	
-69.272	218.662	0	
-66.0774	190.996	0	
-57.8458	164.905	0	
-48.0352	133.444	0	
-36.5462	103.367	0	
-24.0779	74.6745	0	
-12.0159	52.9923	0	
-3.10311	30.2892	0	
-3.1677	29.8209	0	
-3.31941	29.3824	0	
-3.41991	29.1469	0	
-3.655	28.9816	0	
-3.97557	28.8618	0	
-4.41384	28.5518	0	
-4.75463	28.1675	0	
-10.2353	30.3943	0	
-12.4237	29.7943	0	
-16.249	30.5353	0	
-20.1046	31.3283	0	
-23.9369	32.174	0	
27.4834	37.0774	0	
23.18	36.223	0	
18.8783	35.4293	0	
14.5762	34.694	0	
11.7367	35.7325	0	
9.39212	34.743	0	
5.48445	29.9696	0	
5.74701	30.508	0	
5.04191	30.8723	0	
4.60879	31.0771	0	
4.34464	31.1928	0	
4.06401	31.2963	0	
3.59208	31.5159	0	
2.80466	31.7313	0	
17.016	57.2354	0	
31.8537	89.6594	0	
47.5342	121.062	0	
66.1001	153.416	0	
84.0851	188.935	0	
98.4241	222.526	0	
109.106	256.086	0	
112.787	289.634	0	
105.166	321.05	0	
85.643	343.859	0	
67.3071	352.298	0	
48.0394	352.836	0	
18.3834	345.798	0	
-21.6321	327.595	0	
-49.0104	301.307	0	
-63.8033	268.497	0	
-68.125	234.82	0	
-65.9	202.086	0	
-60.1235	169.794	0	
-50.2236	136.259	0	
-37.7716	106.203	0	
-25.8114	76.7548	0	
-14.5712	52.5081	0	
-2.88051	32.2132	0	
-3.52245	31.9917	0	
-3.84031	31.7715	0	
-3.97298	31.6838	0	
-4.09906	31.5947	0	
-4.39058	31.4387	0	
-4.9824	31.1821	0	
-5.30068	30.9847	0	
-9.74401	31.9759	0	
-12.7582	33.0536	0	
-14.106	33.6605	0	
-18.0307	34.3832	0	
-22.0217	35.1764	0	
-25.9882	36.0332	0	
29.5476	41.4449	0	
25.1038	40.5896	0	
20.6596	39.7979	0	
16.2301	39.0653	0	
13.5047	39.5915	0	
10.7593	38.7547	0	
7.76498	37.0357	0	
7.2088	33.8375	0	
5.75896	33.7139	0	
5.30479	33.6546	0	
5.05427	33.6625	0	
4.7462	33.6874	0	
4.19422	33.642	0	
2.81437	33.542	0	
7.94963	43.3341	0	
18.9909	67.3105	0	
34.3424	95.4088	0	
52.2121	125.297	0	
70.0841	161.061	0	
87.0701	195.687	0	
99.9781	231.733	0	
105.74	267.999	0	
98.9147	304.159	0	
81.9187	331.092	0	
67.3644	342.269	0	
47.4458	344.615	0	
20.3442	339.21	0	
-20.9585	318.292	0	
-47.6921	287.325	0	
-60.7756	251.054	0	
-62.7992	215.807	0	
-58.3232	181.728	0	
-49.5046	149.447	0	
-39.4138	114.301	0	
-26.7731	85.7472	0	
-15.968	60.2945	0	
-7.62594	42.3166	0	
-2.89003	33.9104	0	
-4.14688	34.0148	0	
-4.55689	34.0689	0	
-4.7219	34.0549	0	
-4.83123	34.0617	0	
-5.11667	34.1139	0	
-6.27149	34.1931	0	
-6.54096	34.6963	0	
-10.0888	35.5966	0	
-13.2854	36.3001	0	
-15.7016	37.6348	0	
-19.7997	38.371	0	
-23.9507	39.1722	0	
-28.0838	40.0415	0	
31.6243	45.9536	0	
27.029	45.0914	0	
22.4375	44.2862	0	
17.9112	43.5514	0	
16.2503	42.5439	0	
14.3595	40.957	0	
12.0979	39.1822	0	
7.38521	36.257	0	
6.38503	35.9382	0	
6.04224	36.071	0	
5.80616	36.1084	0	
5.45351	36.1742	0	
4.89524	36.3728	0	
4.11894	36.7502	0	
4.23048	37.2896	0	
10.014	49.9794	0	
21.1022	72.3706	0	
37.1899	98.9438	0	
55.3202	134.758	0	
72.5019	170.017	0	
86.7222	207.326	0	
93.3971	247.679	0	
89.7261	284.741	0	
77.8868	312.962	0	
65.8001	328.616	0	
47.0725	335.077	0	
20.5332	328.843	0	
-19.6503	301.898	0	
-43.0477	268.92	0	
-53.1361	232.838	0	
-53.7496	196.122	0	
-48.1535	160.325	0	
-38.444	127.444	0	
-28.2295	91.5405	0	
-16.8794	67.381	0	
-9.21614	48.2958	0	
-4.48552	37.5959	0	
-4.22679	37.0452	0	
-4.87201	36.6608	0	
-5.29284	36.4607	0	
-5.50188	36.3948	0	
-5.58449	36.3484	0	
-5.75588	36.1823	0	
-6.449	36.4369	0	
-9.59815	38.5385	0	
-11.6308	39.695	0	
-14.3278	40.6606	0	
-17.2861	41.8127	0	
-21.556	42.5471	0	
-25.8905	43.3628	0	
-30.2202	44.2439	0	
33.7135	50.6304	0	
28.9611	49.7649	0	
24.2321	48.9333	0	
19.5177	48.1391	0	
17.024	45.7031	0	
14.8337	43.7734	0	
12.4276	43.1527	0	
7.99335	43.1255	0	
6.82307	37.6011	0	
6.73725	38.0423	0	
6.53457	38.4252	0	
6.14594	38.5821	0	
5.54684	38.7765	0	
5.08346	38.9503	0	
4.74258	39.3394	0	
4.4426	39.7862	0	
11.2481	54.8013	0	
23.4661	73.6174	0	
39.105	103.258	0	
56.1581	139.965	0	
69.7946	180.105	0	
78.9622	224.194	0	
79.9341	263.499	0	
71.4079	293.72	0	
62.6075	310.702	0	
46.2661	318.088	0	
19.4893	310.496	0	
-16.435	282.702	0	
-37.1355	247.573	0	
-43.8351	209.881	0	
-42.7007	169.626	0	
-36.9081	131.951	0	
-27.118	99.1344	0	
-18.5225	69.4314	0	
-9.81961	52.9368	0	
-4.83478	40.0054	0	
-5.00869	39.5509	0	
-5.2164	39.1546	0	
-5.54444	38.9777	0	
-6.00881	38.7785	0	
-6.25246	38.6154	0	
-6.29783	38.2145	0	
-6.20993	37.7461	0	
-6.68931	41.4786	0	
-9.89641	41.625	0	
-12.1057	42.6078	0	
-15.0657	44.2566	0	
-18.7846	46.1921	0	
-23.3237	46.9672	0	
-27.8384	47.7987	0	
-32.3752	48.6807	0	
35.7853	55.494	0	
30.8871	54.6417	0	
26.0341	53.8253	0	
21.1114	53.0485	0	
17.7024	50.2931	0	
14.7788	49.1736	0	
11.5799	48.8204	0	
16.9938	50.0158	0	
14.8008	46.214	0	
7.286	40.0307	0	
7.55307	40.6004	0	
6.81728	40.9917	0	
6.2337	41.1911	0	
5.76712	41.2816	0	
5.36155	41.4132	0	
4.85613	41.7458	0	
4.29438	42.1057	0	
13.0188	57.3245	0	
25.2672	79.8518	0	
38.4413	110.198	0	
51.7323	142.941	0	
64.9589	180.806	0	
68.6996	228.795	0	
62.7366	268.064	0	
57.0093	287.815	0	
44.3275	295.473	0	
18.9464	286.063	0	
-11.6347	254.846	0	
-30.5322	213.798	0	
-35.5957	170.747	0	
-30.8843	136.443	0	
-25.6598	104.947	0	
-17.5006	78.4889	0	
-10.7101	55.4918	0	
-4.79207	42.234	0	
-5.25499	41.8725	0	
-5.64393	41.5382	0	
-5.92	41.4075	0	
-6.25139	41.3155	0	
-6.70106	41.1086	0	
-7.30563	40.703	0	
-6.86726	40.1126	0	
-17.994	44.7851	0	
-21.1928	48.6006	0	
-8.94678	47.3456	0	
-12.2431	47.8001	0	
-15.7724	48.8847	0	
-20.3202	50.9444	0	
-25.0922	51.689	0	
-29.775	52.4954	0	
-34.5032	53.3597	0	
37.7995	60.5158	0	
32.787	59.687	0	
27.8273	58.8956	0	
22.7961	58.1417	0	
22.0954	59.9689	0	
22.3118	60.561	0	
25.6621	59.2382	0	
29.3748	56.4289	0	
28.1616	52.3983	0	
19.7228	48.2342	0	
8.937	43.8874	0	
7.56659	43.7721	0	
6.98143	43.6845	0	
6.4959	43.6796	0	
5.97421	43.7174	0	
5.39753	43.8023	0	
4.61774	43.9962	0	
3.51091	44.1723	0	
13.8921	62.7374	0	
25.2201	87.3756	0	
38.3598	113.109	0	
49.5714	142.296	0	
54.3672	182.196	0	
51.1674	227.812	0	
48.8784	254.288	0	
40.1092	261.558	0	
18.4778	248.795	0	
-5.39067	217.993	0	
-21.6	175.384	0	
-25.9002	137.971	0	
-21.5055	111.031	0	
-16.65	83.5916	0	
-10.3113	61.2716	0	
-4.066	44.2176	0	
-5.11604	44.0445	0	
-5.80946	43.8525	0	
-6.27822	43.7721	0	
-6.67202	43.7389	0	
-7.0189	43.743	0	
-7.47241	43.8303	0	
-8.74	43.9492	0	
-23.7607	48.7486	0	
-38.082	53.0056	0	
-39.968	57.7232	0	
-34.0328	60.3803	0	
-26.6328	60.8996	0	
-23.0953	58.9379	0	
-21.9574	55.8755	0	
-26.8561	56.6103	0	
-31.6832	57.3962	0	
-36.5639	58.2356	0	
39.7387	65.6343	0	
34.6593	64.8277	0	
29.6338	64.04	0	
24.5493	63.269	0	
26.7416	65.983	0	
30.7707	66.9699	0	
37.7115	65.8832	0	
41.5135	62.7769	0	
40.4511	58.9772	0	
32.5713	53.9276	0	
8.95267	45.7078	0	
8.23165	45.9281	0	
7.79271	46.1019	0	
7.27163	46.0906	0	
6.62444	46.1511	0	
5.97251	46.2357	0	
5.11467	46.2266	0	
3.51705	46.1477	0	
6.92152	52.971	0	
15.1038	68.8284	0	
25.9871	91.2337	0	
34.892	116.505	0	
39.6571	146.669	0	
38.6011	181.451	0	
39.1329	204.766	0	
32.9992	214.271	0	
18.1773	206.463	0	
-0.0668195	180.082	0	
-12.8033	144.848	0	
-16.0914	115.906	0	
-13.9326	90.3669	0	
-9.63755	68.3082	0	
-6.02325	52.4096	0	
-4.06874	46.1459	0	
-5.61802	46.2228	0	
-6.40262	46.229	0	
-6.95822	46.1458	0	
-7.47318	46.0921	0	
-7.84776	46.0982	0	
-8.15669	45.9126	0	
-8.75732	45.6837	0	
-47.364	55.8186	0	
-59.938	63.016	0	
-57.3824	67.338	0	
-50.6401	69.9549	0	
-40.1111	69.368	0	
-29.9748	65.4918	0	
-23.6527	60.8857	0	
-28.6381	61.6394	0	
-33.5645	62.4236	0	
-38.5457	63.2408	0	
41.6054	70.7907	0	
36.5086	70.0035	0	
31.4639	69.2155	0	
26.3664	68.4255	0	
31.6174	72.0678	0	
39.0467	74.6849	0	
47.3405	75.2311	0	
54.4735	72.9073	0	
54.6343	68.69	0	
44.3315	63.3794	0	
29.0915	56.9806	0	
8.69119	47.7613	0	
8.81331	48.2676	0	
7.9656	48.5934	0	
7.25589	48.7543	0	
6.55946	48.865	0	
5.71854	49.0246	0	
4.64403	49.3159	0	
4.29682	49.754	0	
7.52783	56.5592	0	
15.3631	74.7907	0	
22.4878	96.952	0	
26.3491	121.113	0	
28.4106	148.704	0	
30.8507	171.977	0	
27.5442	182.804	0	
17.3943	174.493	0	
2.28151	147.773	0	
-5.55235	121.326	0	
-8.16481	98.3336	0	
-8.92189	73.5142	0	
-6.32853	56.2254	0	
-4.90069	49.7542	0	
-5.20348	49.3042	0	
-6.22834	48.9969	0	
-7.00478	48.8183	0	
-7.62458	48.695	0	
-8.19782	48.5359	0	
-8.85808	48.1853	0	
-8.62904	47.6659	0	
-39.9398	60.5867	0	
-66.7938	69.5588	0	
-78.4451	74.5479	0	
-74.4473	77.5914	0	
-63.1681	78.5429	0	
-50.0145	77.0942	0	
-36.6958	72.4655	0	
-25.4128	65.9615	0	
-30.4447	66.7345	0	
-35.4222	67.5192	0	
-40.4533	68.3165	0	
43.406	75.9368	0	
38.3365	75.1676	0	
33.3161	74.3792	0	
28.2464	73.5715	0	
36.2031	78.7082	0	
44.4402	82.3284	0	
52.3747	84.2892	0	
63.8637	83.8651	0	
68.4861	79.3779	0	
56.7852	71.8785	0	
41.7413	64.676	0	
26.3864	57.7301	0	
10.1535	51.5523	0	
8.67049	51.4526	0	
7.88515	51.4418	0	
7.18914	51.5151	0	
6.35048	51.5818	0	
5.51125	51.6297	0	
4.69779	51.8854	0	
3.79784	52.1998	0	
6.8239	59.6354	0	
12.3689	78.0411	0	
16.8652	97.2191	0	
20.0713	115.649	0	
21.0658	132.723	0	
19.5744	140.322	0	
12.9584	133.515	0	
3.0987	116.882	0	
-1.66941	99.1823	0	
-4.59184	78.1485	0	
-5.49005	58.7951	0	
-4.46649	52.2177	0	
-5.31475	51.8889	0	
-6.07988	51.6161	0	
-6.86246	51.5497	0	
-7.63948	51.4597	0	
-8.27964	51.3502	0	
-8.99537	51.2858	0	
-10.1901	51.3527	0	
-36.8038	59.9658	0	
-63.1351	70.6424	0	
-86.9033	81.4723	0	
-95.9933	87.4286	0	
-90.2964	90.3425	0	
-74.5356	88.9323	0	
-56.6445	83.6696	0	
-40.9855	78.1287	0	
-27.2375	71.0604	0	
-32.2732	71.8515	0	
-37.2574	72.6362	0	
-42.2926	73.4147	0	
45.1457	81.0307	0	
40.1441	80.2783	0	
35.1881	79.4901	0	
30.1864	78.6659	0	
38.76	84.3931	0	
46.7369	87.7305	0	
54.4215	90.0749	0	
68.0112	92.286	0	
81.0495	90.0171	0	
71.1274	81.9231	0	
53.1686	74.0521	0	
36.6529	65.5889	0	
10.1938	53.5846	0	
9.31545	53.8441	0	
8.55144	54.0467	0	
7.89382	54.0924	0	
7.08924	54.1039	0	
6.17848	54.1212	0	
5.2297	54.1699	0	
4.08023	54.3338	0	
2.5469	54.4779	0	
5.52886	61.6997	0	
9.34247	75.1024	0	
11.9722	89.444	0	
12.3257	101.2	0	
12.1607	105.877	0	
9.1158	101.888	0	
2.50122	89.8709	0	
-1.82233	74.6779	0	
-3.9979	60.937	0	
-3.27794	54.502	0	
-4.76317	54.3489	0	
-5.86077	54.1736	0	
-6.75339	54.1139	0	
-7.60674	54.0847	0	
-8.35322	54.0622	0	
-8.9763	54.0264	0	
-9.84012	53.8702	0	
-10.3003	53.454	0	
-55.6379	70.4102	0	
-83.5601	83.7158	0	