# vtk DataFile Version 4.1
vtk output
ASCII
DATASET UNSTRUCTURED_GRID

POINTS	8721	float
0	0	0	
0	1	0	
0	2	0	
0	3	0	
0	4	0	
0	5	0	
0	6	0	
0	7	0	
0	8	0	
0	9	0	
0	10	0	
0	11	0	
0	12	0	
0	13	0	
0	14	0	
0	15	0	
0	16	0	
0	17	0	
0	18	0	
0	19	0	
0	20	0	
1	0	0	
1	1	0	
1	2	0	
1	3	0	
1	4	0	
1	5	0	
1	6	0	
1	7	0	
1	8	0	
1	9	0	
1	10	0	
1	11	0	
1	12	0	
1	13	0	
1	14	0	
1	15	0	
1	16	0	
1	17	0	
1	18	0	
1	19	0	
1	20	0	
2	0	0	
2	1	0	
2	2	0	
2	3	0	
2	4	0	
2	5	0	
2	6	0	
2	7	0	
2	8	0	
2	9	0	
2	10	0	
2	11	0	
2	12	0	
2	13	0	
2	14	0	
2	15	0	
2	16	0	
2	17	0	
2	18	0	
2	19	0	
2	20	0	
3	0	0	
3	1	0	
3	2	0	
3	3	0	
3	4	0	
3	5	0	
3	6	0	
3	7	0	
3	8	0	
3	9	0	
3	10	0	
3	11	0	
3	12	0	
3	13	0	
3	14	0	
3	15	0	
3	16	0	
3	17	0	
3	18	0	
3	19	0	
3	20	0	
4	0	0	
4	1	0	
4	2	0	
4	3	0	
4	4	0	
4	5	0	
4	6	0	
4	7	0	
4	8	0	
4	9	0	
4	10	0	
4	11	0	
4	12	0	
4	13	0	
4	14	0	
4	15	0	
4	16	0	
4	17	0	
4	18	0	
4	19	0	
4	20	0	
5	0	0	
5	1	0	
5	2	0	
5	3	0	
5	4	0	
5	5	0	
5	6	0	
5	7	0	
5	8	0	
5	9	0	
5	10	0	
5	11	0	
5	12	0	
5	13	0	
5	14	0	
5	15	0	
5	16	0	
5	17	0	
5	18	0	
5	19	0	
5	20	0	
6	0	0	
6	1	0	
6	2	0	
6	3	0	
6	4	0	
6	5	0	
6	6	0	
6	7	0	
6	8	0	
6	9	0	
6	10	0	
6	11	0	
6	12	0	
6	13	0	
6	14	0	
6	15	0	
6	16	0	
6	17	0	
6	18	0	
6	19	0	
6	20	0	
7	0	0	
7	1	0	
7	2	0	
7	3	0	
7	4	0	
7	5	0	
7	6	0	
7	7	0	
7	8	0	
7	9	0	
7	10	0	
7	11	0	
7	12	0	
7	13	0	
7	14	0	
7	15	0	
7	16	0	
7	17	0	
7	18	0	
7	19	0	
7	20	0	
8	0	0	
8	1	0	
8	2	0	
8	3	0	
8	4	0	
8	5	0	
8	6	0	
8	7	0	
8	8	0	
8	9	0	
8	10	0	
8	11	0	
8	12	0	
8	13	0	
8	14	0	
8	15	0	
8	16	0	
8	17	0	
8	18	0	
8	19	0	
8	20	0	
9	0	0	
9	1	0	
9	2	0	
9	3	0	
9	4	0	
9	5	0	
9	6	0	
9	7	0	
9	8	0	
9	9	0	
9	10	0	
9	11	0	
9	12	0	
9	13	0	
9	14	0	
9	15	0	
9	16	0	
9	17	0	
9	18	0	
9	19	0	
9	20	0	
10	0	0	
10	1	0	
10	2	0	
10	3	0	
10	4	0	
10	5	0	
10	6	0	
10	7	0	
10	8	0	
10	9	0	
10	10	0	
10	11	0	
10	12	0	
10	13	0	
10	14	0	
10	15	0	
10	16	0	
10	17	0	
10	18	0	
10	19	0	
10	20	0	
11	0	0	
11	1	0	
11	2	0	
11	3	0	
11	4	0	
11	5	0	
11	6	0	
11	7	0	
11	8	0	
11	9	0	
11	10	0	
11	11	0	
11	12	0	
11	13	0	
11	14	0	
11	15	0	
11	16	0	
11	17	0	
11	18	0	
11	19	0	
11	20	0	
12	0	0	
12	1	0	
12	2	0	
12	3	0	
12	4	0	
12	5	0	
12	6	0	
12	7	0	
12	8	0	
12	9	0	
12	10	0	
12	11	0	
12	12	0	
12	13	0	
12	14	0	
12	15	0	
12	16	0	
12	17	0	
12	18	0	
12	19	0	
12	20	0	
13	0	0	
13	1	0	
13	2	0	
13	3	0	
13	4	0	
13	5	0	
13	6	0	
13	7	0	
13	8	0	
13	9	0	
13	10	0	
13	11	0	
13	12	0	
13	13	0	
13	14	0	
13	15	0	
13	16	0	
13	17	0	
13	18	0	
13	19	0	
13	20	0	
14	0	0	
14	1	0	
14	2	0	
14	3	0	
14	4	0	
14	5	0	
14	6	0	
14	7	0	
14	8	0	
14	9	0	
14	10	0	
14	11	0	
14	12	0	
14	13	0	
14	14	0	
14	15	0	
14	16	0	
14	17	0	
14	18	0	
14	19	0	
14	20	0	
15	0	0	
15	1	0	
15	2	0	
15	3	0	
15	4	0	
15	5	0	
15	6	0	
15	7	0	
15	8	0	
15	9	0	
15	10	0	
15	11	0	
15	12	0	
15	13	0	
15	14	0	
15	15	0	
15	16	0	
15	17	0	
15	18	0	
15	19	0	
15	20	0	
16	0	0	
16	1	0	
16	2	0	
16	3	0	
16	4	0	
16	5	0	
16	6	0	
16	7	0	
16	8	0	
16	9	0	
16	10	0	
16	11	0	
16	12	0	
16	13	0	
16	14	0	
16	15	0	
16	16	0	
16	17	0	
16	18	0	
16	19	0	
16	20	0	
17	0	0	
17	1	0	
17	2	0	
17	3	0	
17	4	0	
17	5	0	
17	6	0	
17	7	0	
17	8	0	
17	9	0	
17	10	0	
17	11	0	
17	12	0	
17	13	0	
17	14	0	
17	15	0	
17	16	0	
17	17	0	
17	18	0	
17	19	0	
17	20	0	
18	0	0	
18	1	0	
18	2	0	
18	3	0	
18	4	0	
18	5	0	
18	6	0	
18	7	0	
18	8	0	
18	9	0	
18	10	0	
18	11	0	
18	12	0	
18	13	0	
18	14	0	
18	15	0	
18	16	0	
18	17	0	
18	18	0	
18	19	0	
18	20	0	
19	0	0	
19	1	0	
19	2	0	
19	3	0	
19	4	0	
19	5	0	
19	6	0	
19	7	0	
19	8	0	
19	9	0	
19	10	0	
19	11	0	
19	12	0	
19	13	0	
19	14	0	
19	15	0	
19	16	0	
19	17	0	
19	18	0	
19	19	0	
19	20	0	
20	0	0	
20	1	0	
20	2	0	
20	3	0	
20	4	0	
20	5	0	
20	6	0	
20	7	0	
20	8	0	
20	9	0	
20	10	0	
20	11	0	
20	12	0	
20	13	0	
20	14	0	
20	15	0	
20	16	0	
20	17	0	
20	18	0	
20	19	0	
20	20	0	
21	0	0	
21	1	0	
21	2	0	
21	3	0	
21	4	0	
21	5	0	
21	6	0	
21	7	0	
21	8	0	
21	9	0	
21	10	0	
21	11	0	
21	12	0	
21	13	0	
21	14	0	
21	15	0	
21	16	0	
21	17	0	
21	18	0	
21	19	0	
21	20	0	
22	0	0	
22	1	0	
22	2	0	
22	3	0	
22	4	0	
22	5	0	
22	6	0	
22	7	0	
22	8	0	
22	9	0	
22	10	0	
22	11	0	
22	12	0	
22	13	0	
22	14	0	
22	15	0	
22	16	0	
22	17	0	
22	18	0	
22	19	0	
22	20	0	
23	0	0	
23	1	0	
23	2	0	
23	3	0	
23	4	0	
23	5	0	
23	6	0	
23	7	0	
23	8	0	
23	9	0	
23	10	0	
23	11	0	
23	12	0	
23	13	0	
23	14	0	
23	15	0	
23	16	0	
23	17	0	
23	18	0	
23	19	0	
23	20	0	
24	0	0	
24	1	0	
24	2	0	
24	3	0	
24	4	0	
24	5	0	
24	6	0	
24	7	0	
24	8	0	
24	9	0	
24	10	0	
24	11	0	
24	12	0	
24	13	0	
24	14	0	
24	15	0	
24	16	0	
24	17	0	
24	18	0	
24	19	0	
24	20	0	
25	0	0	
25	1	0	
25	2	0	
25	3	0	
25	4	0	
25	5	0	
25	6	0	
25	7	0	
25	8	0	
25	9	0	
25	10	0	
25	11	0	
25	12	0	
25	13	0	
25	14	0	
25	15	0	
25	16	0	
25	17	0	
25	18	0	
25	19	0	
25	20	0	
26	0	0	
26	1	0	
26	2	0	
26	3	0	
26	4	0	
26	5	0	
26	6	0	
26	7	0	
26	8	0	
26	9	0	
26	10	0	
26	11	0	
26	12	0	
26	13	0	
26	14	0	
26	15	0	
26	16	0	
26	17	0	
26	18	0	
26	19	0	
26	20	0	
27	0	0	
27	1	0	
27	2	0	
27	3	0	
27	4	0	
27	5	0	
27	6	0	
27	7	0	
27	8	0	
27	9	0	
27	10	0	
27	11	0	
27	12	0	
27	13	0	
27	14	0	
27	15	0	
27	16	0	
27	17	0	
27	18	0	
27	19	0	
27	20	0	
28	0	0	
28	1	0	
28	2	0	
28	3	0	
28	4	0	
28	5	0	
28	6	0	
28	7	0	
28	8	0	
28	9	0	
28	10	0	
28	11	0	
28	12	0	
28	13	0	
28	14	0	
28	15	0	
28	16	0	
28	17	0	
28	18	0	
28	19	0	
28	20	0	
29	0	0	
29	1	0	
29	2	0	
29	3	0	
29	4	0	
29	5	0	
29	6	0	
29	7	0	
29	8	0	
29	9	0	
29	10	0	
29	11	0	
29	12	0	
29	13	0	
29	14	0	
29	15	0	
29	16	0	
29	17	0	
29	18	0	
29	19	0	
29	20	0	
30	0	0	
30	1	0	
30	2	0	
30	3	0	
30	4	0	
30	5	0	
30	6	0	
30	7	0	
30	8	0	
30	9	0	
30	10	0	
30	11	0	
30	12	0	
30	13	0	
30	14	0	
30	15	0	
30	16	0	
30	17	0	
30	18	0	
30	19	0	
30	20	0	
31	0	0	
31	1	0	
31	2	0	
31	3	0	
31	4	0	
31	5	0	
31	6	0	
31	7	0	
31	8	0	
31	9	0	
31	10	0	
31	11	0	
31	12	0	
31	13	0	
31	14	0	
31	15	0	
31	16	0	
31	17	0	
31	18	0	
31	19	0	
31	20	0	
32	0	0	
32	1	0	
32	2	0	
32	3	0	
32	4	0	
32	5	0	
32	6	0	
32	7	0	
32	8	0	
32	9	0	
32	10	0	
32	11	0	
32	12	0	
32	13	0	
32	14	0	
32	15	0	
32	16	0	
32	17	0	
32	18	0	
32	19	0	
32	20	0	
33	0	0	
33	1	0	
33	2	0	
33	3	0	
33	4	0	
33	5	0	
33	6	0	
33	7	0	
33	8	0	
33	9	0	
33	10	0	
33	11	0	
33	12	0	
33	13	0	
33	14	0	
33	15	0	
33	16	0	
33	17	0	
33	18	0	
33	19	0	
33	20	0	
34	0	0	
34	1	0	
34	2	0	
34	3	0	
34	4	0	
34	5	0	
34	6	0	
34	7	0	
34	8	0	
34	9	0	
34	10	0	
34	11	0	
34	12	0	
34	13	0	
34	14	0	
34	15	0	
34	16	0	
34	17	0	
34	18	0	
34	19	0	
34	20	0	
35	0	0	
35	1	0	
35	2	0	
35	3	0	
35	4	0	
35	5	0	
35	6	0	
35	7	0	
35	8	0	
35	9	0	
35	10	0	
35	11	0	
35	12	0	
35	13	0	
35	14	0	
35	15	0	
35	16	0	
35	17	0	
35	18	0	
35	19	0	
35	20	0	
36	0	0	
36	1	0	
36	2	0	
36	3	0	
36	4	0	
36	5	0	
36	6	0	
36	7	0	
36	8	0	
36	9	0	
36	10	0	
36	11	0	
36	12	0	
36	13	0	
36	14	0	
36	15	0	
36	16	0	
36	17	0	
36	18	0	
36	19	0	
36	20	0	
37	0	0	
37	1	0	
37	2	0	
37	3	0	
37	4	0	
37	5	0	
37	6	0	
37	7	0	
37	8	0	
37	9	0	
37	10	0	
37	11	0	
37	12	0	
37	13	0	
37	14	0	
37	15	0	
37	16	0	
37	17	0	
37	18	0	
37	19	0	
37	20	0	
38	0	0	
38	1	0	
38	2	0	
38	3	0	
38	4	0	
38	5	0	
38	6	0	
38	7	0	
38	8	0	
38	9	0	
38	10	0	
38	11	0	
38	12	0	
38	13	0	
38	14	0	
38	15	0	
38	16	0	
38	17	0	
38	18	0	
38	19	0	
38	20	0	
39	0	0	
39	1	0	
39	2	0	
39	3	0	
39	4	0	
39	5	0	
39	6	0	
39	7	0	
39	8	0	
39	9	0	
39	10	0	
39	11	0	
39	12	0	
39	13	0	
39	14	0	
39	15	0	
39	16	0	
39	17	0	
39	18	0	
39	19	0	
39	20	0	
40	0	0	
40	1	0	
40	2	0	
40	3	0	
40	4	0	
40	5	0	
40	6	0	
40	7	0	
40	8	0	
40	9	0	
40	10	0	
40	11	0	
40	12	0	
40	13	0	
40	14	0	
40	15	0	
40	16	0	
40	17	0	
40	18	0	
40	19	0	
40	20	0	
41	0	0	
41	1	0	
41	2	0	
41	3	0	
41	4	0	
41	5	0	
41	6	0	
41	7	0	
41	8	0	
41	9	0	
41	10	0	
41	11	0	
41	12	0	
41	13	0	
41	14	0	
41	15	0	
41	16	0	
41	17	0	
41	18	0	
41	19	0	
41	20	0	
42	0	0	
42	1	0	
42	2	0	
42	3	0	
42	4	0	
42	5	0	
42	6	0	
42	7	0	
42	8	0	
42	9	0	
42	10	0	
42	11	0	
42	12	0	
42	13	0	
42	14	0	
42	15	0	
42	16	0	
42	17	0	
42	18	0	
42	19	0	
42	20	0	
43	0	0	
43	1	0	
43	2	0	
43	3	0	
43	4	0	
43	5	0	
43	6	0	
43	7	0	
43	8	0	
43	9	0	
43	10	0	
43	11	0	
43	12	0	
43	13	0	
43	14	0	
43	15	0	
43	16	0	
43	17	0	
43	18	0	
43	19	0	
43	20	0	
44	0	0	
44	1	0	
44	2	0	
44	3	0	
44	4	0	
44	5	0	
44	6	0	
44	7	0	
44	8	0	
44	9	0	
44	10	0	
44	11	0	
44	12	0	
44	13	0	
44	14	0	
44	15	0	
44	16	0	
44	17	0	
44	18	0	
44	19	0	
44	20	0	
45	0	0	
45	1	0	
45	2	0	
45	3	0	
45	4	0	
45	5	0	
45	6	0	
45	7	0	
45	8	0	
45	9	0	
45	10	0	
45	11	0	
45	12	0	
45	13	0	
45	14	0	
45	15	0	
45	16	0	
45	17	0	
45	18	0	
45	19	0	
45	20	0	
46	0	0	
46	1	0	
46	2	0	
46	3	0	
46	4	0	
46	5	0	
46	6	0	
46	7	0	
46	8	0	
46	9	0	
46	10	0	
46	11	0	
46	12	0	
46	13	0	
46	14	0	
46	15	0	
46	16	0	
46	17	0	
46	18	0	
46	19	0	
46	20	0	
47	0	0	
47	1	0	
47	2	0	
47	3	0	
47	4	0	
47	5	0	
47	6	0	
47	7	0	
47	8	0	
47	9	0	
47	10	0	
47	11	0	
47	12	0	
47	13	0	
47	14	0	
47	15	0	
47	16	0	
47	17	0	
47	18	0	
47	19	0	
47	20	0	
48	0	0	
48	1	0	
48	2	0	
48	3	0	
48	4	0	
48	5	0	
48	6	0	
48	7	0	
48	8	0	
48	9	0	
48	10	0	
48	11	0	
48	12	0	
48	13	0	
48	14	0	
48	15	0	
48	16	0	
48	17	0	
48	18	0	
48	19	0	
48	20	0	
49	0	0	
49	1	0	
49	2	0	
49	3	0	
49	4	0	
49	5	0	
49	6	0	
49	7	0	
49	8	0	
49	9	0	
49	10	0	
49	11	0	
49	12	0	
49	13	0	
49	14	0	
49	15	0	
49	16	0	
49	17	0	
49	18	0	
49	19	0	
49	20	0	
50	0	0	
50	1	0	
50	2	0	
50	3	0	
50	4	0	
50	5	0	
50	6	0	
50	7	0	
50	8	0	
50	9	0	
50	10	0	
50	11	0	
50	12	0	
50	13	0	
50	14	0	
50	15	0	
50	16	0	
50	17	0	
50	18	0	
50	19	0	
50	20	0	
51	0	0	
51	1	0	
51	2	0	
51	3	0	
51	4	0	
51	5	0	
51	6	0	
51	7	0	
51	8	0	
51	9	0	
51	10	0	
51	11	0	
51	12	0	
51	13	0	
51	14	0	
51	15	0	
51	16	0	
51	17	0	
51	18	0	
51	19	0	
51	20	0	
52	0	0	
52	1	0	
52	2	0	
52	3	0	
52	4	0	
52	5	0	
52	6	0	
52	7	0	
52	8	0	
52	9	0	
52	10	0	
52	11	0	
52	12	0	
52	13	0	
52	14	0	
52	15	0	
52	16	0	
52	17	0	
52	18	0	
52	19	0	
52	20	0	
53	0	0	
53	1	0	
53	2	0	
53	3	0	
53	4	0	
53	5	0	
53	6	0	
53	7	0	
53	8	0	
53	9	0	
53	10	0	
53	11	0	
53	12	0	
53	13	0	
53	14	0	
53	15	0	
53	16	0	
53	17	0	
53	18	0	
53	19	0	
53	20	0	
54	0	0	
54	1	0	
54	2	0	
54	3	0	
54	4	0	
54	5	0	
54	6	0	
54	7	0	
54	8	0	
54	9	0	
54	10	0	
54	11	0	
54	12	0	
54	13	0	
54	14	0	
54	15	0	
54	16	0	
54	17	0	
54	18	0	
54	19	0	
54	20	0	
55	0	0	
55	1	0	
55	2	0	
55	3	0	
55	4	0	
55	5	0	
55	6	0	
55	7	0	
55	8	0	
55	9	0	
55	10	0	
55	11	0	
55	12	0	
55	13	0	
55	14	0	
55	15	0	
55	16	0	
55	17	0	
55	18	0	
55	19	0	
55	20	0	
56	0	0	
56	1	0	
56	2	0	
56	3	0	
56	4	0	
56	5	0	
56	6	0	
56	7	0	
56	8	0	
56	9	0	
56	10	0	
[...]
POINT_DATA	8721
VECTORS u0 float
8.07221e-011	4.27443e-011	0	
2.88477e-011	6.97889e-012	0	
1.14917e-011	1.80613e-012	0	
-1.06908e-012	-4.62239e-013	0	
-1.55512e-012	7.6579e-013	0	
-9.14236e-012	5.98727e-012	0	
-3.49046e-013	4.23609e-013	0	
-1.19118e-013	1.9894e-012	0	
1.74342e-013	1.09987e-012	0	
1.64446e-013	8.61903e-013	0	
1.79437e-013	8.07248e-013	0	
1.94459e-013	7.97134e-013	0	
2.53885e-013	7.78726e-013	0	
2.31476e-013	7.97864e-013	0	
2.30354e-014	9.35918e-013	0	
1.83279e-013	1.37161e-012	0	
9.18066e-013	-3.14143e-014	0	
3.74241e-012	9.4838e-013	0	
-2.81005e-012	4.01527e-013	0	
-2.32869e-011	3.7774e-013	0	
-7.0187e-011	3.51338e-011	0	
2.90834	2.03762	0	
1.52199	1.20333	0	
0.580908	0.758025	0	
-0.222124	0.529407	0	
-0.0765144	0.544429	0	
-0.449079	0.546076	0	
-0.0143636	0.197626	0	
0.0103661	0.120287	0	
-0.000537432	0.0821977	0	
-0.0080787	0.0614745	0	
-0.0117925	0.0559797	0	
-0.0108543	0.056886	0	
-0.00946844	0.0570899	0	
-0.0116885	0.0599239	0	
-0.0230462	0.0706132	0	
-0.0373371	0.0794254	0	
0.014665	0.104832	0	
0.237744	0.344417	0	
-0.094717	0.415067	0	
-1.17871	0.51128	0	
-3.11946	1.41534	0	
5.33701	4.18705	0	
3.09308	3.34836	0	
1.28316	2.87959	0	
-0.530769	2.77567	0	
-1.31685	2.44369	0	
-0.990604	2.06924	0	
-0.726022	3.02132	0	
-0.327491	3.23578	0	
-0.363633	3.10006	0	
-0.498137	2.98217	0	
-0.762396	2.98068	0	
-0.822429	3.14612	0	
-0.348858	3.15086	0	
-0.837158	3.35633	0	
-1.31609	3.94324	0	
-2.52135	4.99085	0	
-0.457596	4.28182	0	
0.510949	1.617	0	
-0.243221	1.71987	0	
-2.26437	2.95362	0	
-6.89082	4.30434	0	
7.52337	7.11789	0	
4.56138	6.36937	0	
2.04523	5.82616	0	
-0.403019	5.57103	0	
-2.83683	5.57942	0	
-1.33581	5.81009	0	
-1.1562	5.97708	0	
-0.877395	6.1831	0	
-0.734242	6.26835	0	
-0.900702	6.23162	0	
-1.47846	6.12306	0	
-2.25102	5.67356	0	
-0.426394	5.97474	0	
-1.96068	7.02939	0	
-2.6091	7.67661	0	
-2.9793	8.07915	0	
-2.01936	8.30572	0	
-1.52936	9.02428	0	
-3.49641	10.3123	0	
-3.81957	9.10014	0	
-10.6833	10.1895	0	
9.36656	10.7775	0	
5.87167	10.1697	0	
2.86036	9.63443	0	
-0.382402	9.11131	0	
-2.91012	8.69195	0	
-1.57305	8.96821	0	
-1.5948	9.14597	0	
-1.56584	9.38999	0	
-0.912346	9.55303	0	
-1.44694	9.79072	0	
-2.2979	10.3711	0	
-3.95863	11.4529	0	
-2.21977	11.8143	0	
-3.09296	11.405	0	
-3.83228	11.4994	0	
-4.13204	11.9391	0	
-3.92076	12.8447	0	
-3.46929	14.3643	0	
-3.67791	15.8508	0	
-5.53394	16.9722	0	
-14.1311	18.0826	0	
10.7096	14.929	0	
6.94449	14.5234	0	
3.65153	14.2405	0	
-0.17192	13.9643	0	
-0.995213	13.4567	0	
-1.43516	13.1492	0	
-1.90276	12.9436	0	
-2.79043	12.2825	0	
-0.665329	12.5874	0	
-2.23238	13.6942	0	
-3.20524	14.3153	0	
-4.05057	14.6285	0	
-3.77541	14.7451	0	
-4.10863	14.9769	0	
-4.98592	15.1559	0	
-5.82077	15.581	0	
-6.09382	16.5501	0	
-5.75609	17.8374	0	
-4.89323	19.5538	0	
-7.52843	26.3772	0	
-17.2664	27.5114	0	
11.5875	19.1191	0	
7.6622	18.8399	0	
4.29956	18.9076	0	
1.48673	19.1511	0	
0.0390737	19.5458	0	
-1.13842	18.1607	0	
-1.957	18.0578	0	
-3.5017	18.8522	0	
-1.62501	18.9563	0	
-2.89991	18.39	0	
-3.87232	18.2844	0	
-4.49673	18.3631	0	
-4.7034	18.5568	0	
-5.05495	18.7232	0	
-6.09354	18.753	0	
-7.53008	18.9278	0	
-8.15901	19.4939	0	
-7.36042	19.3173	0	
-5.58023	18.6258	0	
-10.0959	36.543	0	
-19.8014	37.6364	0	
12.2401	23.0681	0	
8.28466	22.7936	0	
4.84206	22.7117	0	
2.44896	22.7152	0	
0.616203	22.9547	0	
-0.875439	23.2587	0	
-1.75465	22.2288	0	
-2.82416	22.1138	0	
-2.80915	22.1131	0	
-3.4616	22.2565	0	
-4.34138	22.2441	0	
-5.23784	22.2792	0	
-5.63892	22.6039	0	
-5.63782	22.8048	0	
-7.01438	23.1263	0	
-8.96871	22.9765	0	
-10.9562	22.4548	0	
-8.42822	21.2927	0	
-17.5224	39.4668	0	
-13.4032	45.9208	0	
-21.6088	47.0177	0	
12.9329	26.5923	0	
9.43866	26.2255	0	
5.45747	26.1516	0	
3.03144	26.0307	0	
1.20943	25.9489	0	
-0.475701	26.1607	0	
-2.05953	26.4658	0	
-2.60289	25.9371	0	
-3.52319	25.8907	0	
-4.04074	26.1587	0	
-4.82147	26.2781	0	
-6.01657	26.1885	0	
-7.35633	25.9141	0	
-6.06136	27.2447	0	
-8.25409	29.0324	0	
-10.1101	29.732	0	
-16.5516	30.7276	0	
-19.5187	39.0912	0	
-23.3021	43.0912	0	
-17.4297	53.0252	0	
-22.5764	54.0633	0	
13.9635	30.0373	0	
10.1952	29.5848	0	
5.66508	29.0576	0	
3.5665	28.7811	0	
1.73576	28.7585	0	
-0.142832	28.8551	0	
-1.78565	29.3914	0	
-2.67624	30.1918	0	
-4.30733	30.2183	0	
-4.77696	29.9972	0	
-5.24668	30.3711	0	
-6.97226	31.2562	0	
-9.79676	32.836	0	
-9.24915	34.3496	0	
-10.6975	34.6229	0	
-11.2238	38.8277	0	
-18.6631	43.5111	0	
-21.4903	50.7116	0	
-24.2705	56.6253	0	
-22.2973	56.7551	0	
-23.1604	57.3373	0	
15.2248	34.2429	0	
10.5717	33.9068	0	
5.85536	33.8742	0	
4.60846	31.7717	0	
2.37604	31.4778	0	
0.0499102	31.2936	0	
-1.48741	31.6975	0	
-2.83721	32.1738	0	
-4.13333	32.4354	0	
-6.63244	32.4038	0	
-5.92031	34.413	0	
-8.05394	35.9752	0	
-10.5759	37.3258	0	
-11.7452	38.9135	0	
-14.7112	41.6855	0	
-15.7008	46.438	0	
-19.0331	49.285	0	
-23.1121	54.0757	0	
-24.3492	56.4845	0	
-24.3252	56.8518	0	
-24.6303	57.7291	0	
16.3642	39.1433	0	
11.2617	38.766	0	
6.94464	37.0771	0	
5.38903	34.7409	0	
3.34309	34.4147	0	
0.630606	34.0329	0	
-1.1868	34.3517	0	
-3.10268	34.347	0	
-3.65782	35.4018	0	
-6.75705	36.1316	0	
-10.911	36.3544	0	
-9.09543	40.3851	0	
-11.718	41.8667	0	
-14.0459	43.4263	0	
-16.3206	45.2397	0	
-17.0753	48.4943	0	
-20.4834	50.4297	0	
-24.0265	54.1647	0	
-24.6513	57.3788	0	
-25.6955	57.8155	0	
-26.6991	58.524	0	
17.4397	44.45	0	
11.9619	44.0666	0	
7.16789	43.8012	0	
5.52295	37.0805	0	
4.42615	37.423	0	
1.51651	37.2106	0	
-1.44111	36.8936	0	
-3.41976	36.6905	0	
-2.99174	40.5168	0	
-6.43277	41.1223	0	
-10.7773	41.8008	0	
-14.815	42.3281	0	
-13.0281	45.9645	0	
-15.7187	47.6264	0	
-17.8781	49.4493	0	
-18.6377	52.7899	0	
-21.0678	54.3059	0	
-24.2159	55.8979	0	
-25.4629	58.9773	0	
-26.9712	59.4694	0	
-28.4887	60.0871	0	
18.5072	50.1098	0	
12.6827	49.727	0	
9.95723	50.8056	0	
9.72768	42.8885	0	
5.89596	41.4195	0	
2.05886	41.0681	0	
-1.76667	40.9587	0	
-5.51396	41.7923	0	
-2.83209	46.3331	0	
-6.04362	46.9065	0	
-10.4861	47.1951	0	
-14.4064	48.0227	0	
-16.2695	49.265	0	
-17.8314	49.8452	0	
-18.5135	52.001	0	
-19.914	53.9571	0	
-22.058	56.8939	0	
-24.8143	58.8784	0	
-26.5922	60.8985	0	
-28.2514	61.4713	0	
-29.9034	62.0092	0	
19.5568	56.099	0	
13.4193	55.7162	0	
11.9117	56.4384	0	
11.393	48.6255	0	
6.68206	45.929	0	
2.68891	45.6615	0	
-1.7702	45.4402	0	
-5.87547	45.6172	0	
-4.9553	50.2734	0	
-6.30133	53.2816	0	
-10.3819	52.1366	0	
-13.9872	52.092	0	
-16.2666	52.5296	0	
-17.6814	53.0689	0	
-20.4708	52.9774	0	
-22.0125	56.7457	0	
-24.5604	59.1896	0	
-26.0482	60.8691	0	
-28.1388	62.7886	0	
-29.5265	63.4509	0	
-30.9408	63.9205	0	
20.5938	62.3868	0	
14.1685	62.0041	0	
12.4867	59.8655	0	
14.7454	55.2352	0	
6.87621	50.3614	0	
3.77209	50.7893	0	
-1.73241	50.7816	0	
-5.75277	58.5982	0	
-5.56255	59.7324	0	
-6.92927	58.458	0	
-10.8671	57.6568	0	
-13.8258	55.2952	0	
-16.1974	55.1624	0	
-17.2261	56.283	0	
-20.3835	57.181	0	
-24.27	57.3797	0	
-26.3369	59.9082	0	
-29.1108	62.4227	0	
-30.0129	64.1347	0	
-30.8963	64.9678	0	
-31.387	65.3257	0	
21.6209	68.9507	0	
14.9272	68.5681	0	
11.1685	70.4911	0	
14.5549	62.6226	0	
8.62855	62.0566	0	
5.3124	57.9898	0	
-0.922649	57.8839	0	
-6.16909	58.0371	0	
-6.1486	61.4158	0	
-10.162	65.0599	0	
-11.2349	63.2467	0	
-14.2481	62.7027	0	
-18.3286	62.9191	0	
-16.7515	61.4469	0	
-20.0609	61.8814	0	
-24.0112	62.4007	0	
-28.0834	62.6978	0	
-31.3129	65.4237	0	
-31.4347	65.3135	0	
-32.8883	65.8156	0	
-31.4029	65.6909	0	
22.6419	75.775	0	
15.6918	75.3924	0	
10.8874	76.242	0	
14.159	66.3939	0	
9.03512	66.5976	0	
5.75418	64.6552	0	
-0.0800023	64.3242	0	
-6.20052	64.0922	0	
-7.7208	70.425	0	
-9.99703	70.1329	0	
-11.76	68.9799	0	
-15.2323	68.0097	0	
-18.5286	67.5012	0	
-19.6319	67.2919	0	
-19.7737	67.1133	0	
-23.5675	67.526	0	
-27.7857	68.084	0	
-32.0683	68.4572	0	
-32.5387	69.0878	0	
-37.147	70.0793	0	
-46.9805	70.6563	0	
23.6592	82.8497	0	
16.4581	82.4681	0	
11.0035	82.5759	0	
14.3966	72.4826	0	
9.20615	72.1062	0	
5.84138	70.8687	0	
1.22721	71.2725	0	
-6.30851	71.2211	0	
-10.756	77.2006	0	
-11.3574	75.2145	0	
-11.9441	73.4948	0	
-15.5884	73.4826	0	
-19.3648	73.1191	0	
-22.3649	72.1906	0	
-21.2132	70.7771	0	
-23.1329	73.2076	0	
-27.2712	73.6058	0	
-31.7034	74.3165	0	
-34.9831	74.9448	0	
-39.9534	75.6795	0	
-47.7327	78.0111	0	
24.6837	90.1749	0	
17.2225	89.803	0	
13.7313	90.1763	0	
12.4725	84.4153	0	
9.37136	78.521	0	
4.7069	78.165	0	
3.07405	80.6719	0	
-5.81664	80.453	0	
-13.1921	80.8044	0	
-12.8216	80.8811	0	
-14.8261	80.4638	0	
-16.0045	79.8833	0	
-21.0062	80.8708	0	
-26.2095	81.4728	0	
-21.7241	86.8908	0	
-23.5726	83.5202	0	
-26.7639	79.6994	0	
-31.0631	80.2984	0	
-36.4968	80.8432	0	
-42.4714	81.739	0	
-53.154	81.2652	0	
25.7441	97.8058	0	
17.9376	97.4149	0	
13.4825	95.8922	0	
10.2042	94.8436	0	
7.44182	95.7067	0	
1.76907	91.4933	0	
3.81875	90.0025	0	
-4.89694	89.7546	0	
-13.1548	89.6094	0	
-15.6153	89.3863	0	
-18.4945	89.043	0	
-19.8492	89.6064	0	
-22.6437	88.6948	0	
-26.4633	87.8959	0	
-24.6478	91.467	0	
-24.6693	91.9892	0	
-26.6435	96.0429	0	
-30.5447	88.2976	0	
-37.6281	88.6652	0	
-44.1892	89.1145	0	
-53.7198	90.3282	0	
26.7833	105.843	0	
18.6381	105.46	0	
13.1072	103.626	0	
9.55642	102.488	0	
6.0043	102.328	0	
4.38927	103.788	0	
4.22011	98.9835	0	
-4.18399	98.7598	0	
-12.8595	98.51	0	
-17.3325	98.7091	0	
-19.8148	97.4623	0	
-23.6195	95.7268	0	
-23.6236	94.4922	0	
-27.1884	95.6637	0	
-26.7945	95.7334	0	
-22.3862	100.545	0	
-24.8535	97.6723	0	
-31.7085	97.3287	0	
-38.8716	96.9071	0	
-44.4862	96.3747	0	
-56.35	99.6143	0	
27.6474	114.12	0	
19.4932	113.751	0	
14.7141	109.122	0	
10.0648	108.874	0	
7.38303	107.985	0	
4.99209	107.616	0	
4.33772	107.677	0	
-3.29373	107.988	0	
-12.4144	107.841	0	
-15.8154	105.583	0	
-20.9998	105.959	0	
-27.7622	106.512	0	
-25.7213	103.208	0	
-28.0324	108.47	0	
-22.0399	112.403	0	
-22.385	106.656	0	
-24.9597	105.948	0	
-32.6952	106.243	0	
-40.4544	106.534	0	
-49.2214	108.118	0	
-57.7539	110.543	0	
28.2835	122.18	0	
20.5809	121.81	0	
16.1708	123.247	0	
12.8	120.983	0	
7.34181	116.221	0	
6.42159	113.52	0	
2.64868	115.574	0	
-2.49551	117.986	0	
-11.0377	117.919	0	
-16.137	118.457	0	
-22.2388	115.87	0	
-28.1181	114.803	0	
-25.7183	121.309	0	
-24.8343	119.685	0	
-21.5717	116.42	0	
-21.1522	116.028	0	
-26.6379	115.518	0	
-33.659	115.127	0	
-40.5482	114.804	0	
-51.5363	116.988	0	
-62.2016	120.139	0	
28.6616	129.529	0	
21.8869	129.178	0	
16.2113	128.51	0	
12.5492	129.06	0	
6.21711	131.287	0	
7.14867	130.693	0	
2.63139	128.467	0	
-2.56769	126.228	0	
-9.67636	126.033	0	
-15.8822	125.728	0	
-22.7424	124.977	0	
-27.209	123.109	0	
-23.7779	123.17	0	
-24.2233	125.518	0	
-22.0756	125.164	0	
-21.3573	123.241	0	
-27.8368	123.56	0	
-34.6423	123.829	0	
-43.6979	125.083	0	
-52.5345	127.237	0	
-63.5691	129.239	0	
28.9359	135.74	0	
23.4505	135.522	0	
18.8902	135.456	0	
14.353	135.513	0	
10.3763	135.414	0	
6.55952	134.919	0	
2.29558	134.231	0	
-2.76317	133.43	0	
-8.88127	133.059	0	
-14.9471	132.647	0	
-22.2942	134.062	0	
-20.4331	135.696	0	
-18.4272	133.644	0	
-21.0282	133.562	0	
-21.4765	132.221	0	
-23.6188	131.5	0	
-28.5964	131.107	0	
-34.6391	130.948	0	
-44.8722	132.692	0	
-53.8974	134.4	0	
-63.7975	136.557	0	
29.4735	141.2	0	
24.1707	140.857	0	
18.9281	140.473	0	
14.4572	139.762	0	
10.5195	139.329	0	
6.72182	139.005	0	
2.41403	139.029	0	
-2.78906	139.187	0	
-8.38265	139.086	0	
-13.68	138.721	0	
-17.032	140.662	0	
-14.9784	139.893	0	
-18.4253	137.567	0	
-19.0535	136.851	0	
-22.044	136.614	0	
-25.0643	136.646	0	
-28.9525	136.87	0	
-37.4109	136.18	0	
-46.418	138.847	0	
-55.199	141.003	0	
-64.1471	142.942	0	
30.0385	146.929	0	
24.8353	146.763	0	
18.938	146.596	0	
15.1193	147.417	0	
9.26533	148.433	0	
8.21905	147.108	0	
2.60935	146.032	0	
-3.18858	145.342	0	
-7.92542	144.045	0	
-12.008	143.911	0	
-14.5003	144.132	0	
-14.6205	143.968	0	
-16.7448	141.711	0	
-19.2344	141.059	0	
-22.7457	140.98	0	
-26.0704	140.992	0	
-28.8909	140.868	0	
-38.6491	143.579	0	
-48.6551	145.209	0	
-56.5022	146.551	0	
-64.833	148.42	0	
30.3019	152.877	0	
25.7593	153.421	0	
19.286	153.297	0	
17.059	156.077	0	
11.4999	156.569	0	
8.319	153.145	0	
2.55618	151.248	0	
-2.73061	149.644	0	
-7.29962	147.95	0	
-11.3043	147.512	0	
-14.0044	147.13	0	
-15.2231	146.867	0	
-17.6177	146.249	0	
-19.6467	145.381	0	
-23.4791	145.765	0	
-27.2563	146.005	0	
-35.2345	144.998	0	
-43.9307	146.23	0	
-50.6808	148.908	0	
-58.081	151.369	0	
-66.1088	153.675	0	
33.7004	162.556	0	
26.183	160.375	0	
20.7296	160.416	0	
17.031	160.612	0	
12.8378	161.882	0	
9.30311	160.23	0	
3.21946	156.37	0	
-1.91355	154.279	0	
-6.48165	151.968	0	
-10.4739	151.619	0	
-12.3305	150.133	0	
-15.3973	149.867	0	
-18.2034	150.244	0	
-21.0592	150.503	0	
-24.3721	150.354	0	
-27.3411	150.114	0	
-35.783	152.828	0	
-44.8537	153.81	0	
-52.6852	154.996	0	
-60.3982	156.803	0	
-68.183	158.909	0	
34.5419	169.212	0	
26.1582	165.729	0	
21.7247	165.504	0	
17.0297	165.344	0	
13.7212	167.041	0	
10.7404	168.06	0	
4.0548	160.552	0	
-1.08064	158.287	0	
-5.643	155.943	0	
-9.46282	155.595	0	
-12.6651	155.16	0	
-15.7138	154.812	0	
-18.799	154.823	0	
-22.0587	154.949	0	
-25.4911	155.174	0	
-32.1049	154.214	0	
-41.0651	154.251	0	
-49.3917	156.211	0	
-56.1448	158.926	0	
-62.5826	161.715	0	
-70.1695	164.19	0	
37.7101	173.581	0	
26.2827	170.646	0	
22.6377	171.112	0	
17.488	170.914	0	
13.7921	171.081	0	
10.8273	171.815	0	
5.42699	165.981	0	
0.0798272	163.046	0	
-4.47917	160.095	0	
-8.96015	159.745	0	
-13.0856	159.687	0	
-15.384	159.391	0	
-19.4118	159.418	0	
-23.0063	159.304	0	
-25.5778	159.012	0	
-32.3567	161.464	0	
-41.7181	162.911	0	
-50.7423	163.69	0	
-58.227	164.907	0	
-65.3435	167.043	0	
-72.6813	169.501	0	
38.4	182.925	0	
29.4331	180.417	0	
22.6603	176.285	0	
19.2882	176.338	0	
17.6522	176.458	0	
13.429	177.088	0	
8.10499	170.166	0	
1.47743	167.357	0	
-3.6218	164.914	0	
-8.64783	164.655	0	
-12.5855	164.807	0	
-16.1038	164.732	0	
-20.0451	164.697	0	
-24.2279	164.808	0	
-31.5831	163.974	0	
-40.5954	164.094	0	
-48.8491	165.219	0	
-55.1602	167.004	0	
-61.3718	169.177	0	
-68.0328	171.472	0	
-75.1767	174.243	0	
40.291	183.794	0	
33.2092	181.307	0	
22.3804	179.325	0	
20.4478	179.307	0	
17.5036	179.279	0	
14.5334	181.93	0	
11.1398	181.096	0	
2.71904	173.077	0	
-2.96391	170.158	0	
-8.14197	170.004	0	
-12.5125	169.863	0	
-16.7341	169.768	0	
-20.7259	169.675	0	
-24.2931	169.458	0	
-31.8213	171.893	0	
-41.0139	172.771	0	
-49.2648	172.937	0	
-56.249	173.538	0	
-63.3273	174.866	0	
-70.6766	176.623	0	
-78.3822	178.981	0	
40.949	190.666	0	
33.0832	190.089	0	
25.1566	189.63	0	
21.9107	183.849	0	
17.9193	183.719	0	
14.739	183.891	0	
11.8507	185.63	0	
4.01832	176.929	0	
-2.30313	175.611	0	
-7.85759	175.409	0	
-12.8098	175.336	0	
-17.4064	175.23	0	
-21.5813	175.207	0	
-28.3528	175.205	0	
-36.3785	175	0	
-44.4732	175.977	0	
-50.2794	178.998	0	
-57.2172	180.75	0	
-64.7519	182.205	0	
-72.4691	183.797	0	
-80.5745	185.659	0	
41.065	195.124	0	
32.6459	192.711	0	
28.6472	189.618	0	
22.4103	188.282	0	
18.6387	188.046	0	
14.7587	187.823	0	
11.21	188.762	0	
4.53965	184.796	0	
-1.53561	181.844	0	
-7.77525	181.676	0	
-13.3196	181.56	0	
-18.296	181.417	0	
-21.9282	180.799	0	
-28.4132	182.38	0	
-36.6772	183.326	0	
-45.0385	184.026	0	
-52.534	185.292	0	
-59.9997	186.281	0	
-67.1393	187.803	0	
-74.0661	190.012	0	
-82.0797	192.416	0	
43.4492	199.724	0	
36.4827	196.932	0	
30.0172	194.686	0	
22.4938	192.211	0	
19.5185	192.455	0	
14.793	192.455	0	
11.3938	195.12	0	
5.53527	189.472	0	
-1.35203	189.218	0	
-7.89355	188.9	0	
-14.0421	188.602	0	
-18.7629	187.945	0	
-22.5132	193.809	0	
-28.1578	192.184	0	
-37.0243	192.268	0	
-45.3755	192.578	0	
-53.0321	193.145	0	
-60.5748	193.889	0	
-68.2074	194.842	0	
-75.88	196.175	0	
-84.1881	198.331	0	
45.7585	206.518	0	
38.3581	204.363	0	
30.9789	203.521	0	
22.0887	203.263	0	
20.9051	198.644	0	
15.4789	198.464	0	
10.6988	198.333	0	
5.22001	197.423	0	
-1.42041	196.865	0	
-8.17311	196.43	0	
-14.4362	196.052	0	
-22.3042	198.421	0	
-28.4299	199.337	0	
-33.9645	199.772	0	
-39.6866	199.867	0	
-46.5145	200.088	0	
-53.6269	200.742	0	
-60.8963	201.739	0	
-68.6803	202.724	0	
-76.7741	203.788	0	
-85.4711	205.521	0	
47.4248	214.155	0	
39.0906	211.302	0	
34.6451	207.523	0	
28.7913	205.173	0	
21.8901	204.967	0	
16.2979	204.665	0	
10.7885	204.499	0	
4.93994	204.472	0	
-1.47894	204.471	0	
-8.5419	204.439	0	
-15.2426	205.023	0	
-22.5179	205.2	0	
-28.6201	205.158	0	
-34.106	205.423	0	
-39.7357	206.311	0	
-46.9281	207.134	0	
-53.9235	207.745	0	
-61.2757	208.454	0	
-69.0914	209.534	0	
-77.1673	210.798	0	
-85.983	212.557	0	
48.6617	220.562	0	
43.2362	215.124	0	
36.3797	213.482	0	
29.2579	212.287	0	
22.0354	210.847	0	
16.7552	211.152	0	
10.6526	211.424	0	
4.64588	211.649	0	
-1.56426	211.758	0	
-8.37574	211.71	0	
-13.2194	214.382	0	
-21.1327	215.105	0	
-29.0029	215.245	0	
-35.2553	216.282	0	
-39.5998	214.653	0	
-46.9823	214.767	0	
-54.0283	215.221	0	
-61.5422	215.921	0	
-69.4081	216.782	0	
-77.618	217.835	0	
-86.5226	219.398	0	
52.8694	224.115	0	
44.3415	222.583	0	
36.6885	221.694	0	
29.4147	220.98	0	
21.4109	220.825	0	
17.1057	218.705	0	
10.4528	218.791	0	
4.39256	218.837	0	
-1.43321	218.831	0	
-8.04786	218.7	0	
-13.6207	221.277	0	
-18.7127	224.681	0	
-24.8626	226.497	0	
-33.0337	225.789	0	
-37.7592	224.736	0	
-46.1404	223.004	0	
-53.4345	222.923	0	
-61.4983	223.472	0	
-69.5366	224.378	0	
-77.9109	225.474	0	
-86.9063	226.954	0	
53.112	232.526	0	
44.4035	231.649	0	
35.8674	230.499	0	
28.0604	228.443	0	
21.6641	226.573	0	
16.2809	226.328	0	
10.236	226.136	0	
4.2589	225.935	0	
-0.937682	225.801	0	
-7.54191	225.665	0	
-11.6103	227.076	0	
-17.6338	227.32	0	
-23.9706	228.022	0	
-30.8552	228.851	0	
-37.8833	229.077	0	
-45.4466	229.332	0	
-53.0791	229.71	0	
-61.2236	230.402	0	
-69.3962	231.514	0	
-77.765	232.873	0	
-86.7013	234.472	0	
52.3746	241.192	0	
42.9899	239.563	0	
35.0347	237.486	0	
27.8918	234.669	0	
21.5803	232.92	0	
15.7333	232.995	0	
9.96771	232.904	0	
4.48154	232.77	0	
-0.291153	232.996	0	
-6.46845	232.879	0	
-11.5218	233.06	0	
-17.866	233.459	0	
-24.3788	234.606	0	
-31.0715	235.771	0	
-37.9806	236.225	0	
-45.3626	236.74	0	
-53.2728	237.308	0	
-61.3255	238.043	0	
-69.3219	238.781	0	
-77.3576	239.624	0	
-86.0189	241.201	0	
48.8263	248.089	0	
39.1229	246.624	0	
34.1255	245.275	0	
22.7566	240.448	0	
20.1175	239.935	0	
15.4592	239.591	0	
9.7766	239.523	0	
5.0438	239.105	0	
0.176775	239.368	0	
-5.63712	239.255	0	
-11.4777	239.119	0	
-16.629	240.558	0	
-20.2578	242.805	0	
-25.1521	242.745	0	
-33.8473	242.507	0	
-44.3477	244.441	0	
-53.4301	245.599	0	
-61.4252	246.308	0	
-69.3041	246.731	0	
-77.1957	247.23	0	
-85.6158	248.253	0	
34.6018	247.71	0	
30.5185	245.983	0	
25.5076	245.205	0	
22.5248	244.784	0	
18.9854	244.628	0	
15.3441	245.056	0	
9.91559	245.334	0	
5.71664	246.243	0	
0.802159	246.102	0	
-4.97306	245.858	0	
-11.1124	245.651	0	
-17.0705	245.742	0	
-20.6927	247.272	0	
-24.6905	248.678	0	
-32.7503	249.079	0	
-42.9037	249.789	0	
-52.6845	251.582	0	
-60.8434	254.046	0	
-68.8197	254.48	0	
-76.6827	254.815	0	
-85.1606	255.635	0	
34.3327	251.624	0	
30.1276	250.44	0	
25.4248	249.675	0	
21.6389	249.712	0	
17.7725	249.871	0	
15.0688	250.57	0	
9.95262	250.624	0	
5.59337	251.134	0	
0.903773	251.936	0	
-4.44442	252.469	0	
-9.78667	252.642	0	
-13.812	252.938	0	
-17.2329	254.152	0	
-22.7627	255.243	0	
-33.0072	257.423	0	
-43.4798	259.17	0	
-52.7017	259.574	0	
-59.5951	259.389	0	
-66.7973	259.894	0	
-75.7724	261.49	0	
-84.4998	262.746	0	
34.5803	257.705	0	
24.9586	255.493	0	
24.3343	254.818	0	
20.6694	254.921	0	
17.1744	255.364	0	
14.8267	255.554	0	
9.96329	255.553	0	
7.35427	262.065	0	
1.29875	258.464	0	
-4.13718	258.394	0	
-8.97129	258.26	0	
-13.7115	258.11	0	
-16.8381	258.666	0	
-22.1853	259.009	0	
-28.8761	258.923	0	
-36.9125	258.821	0	
-47.0892	259.043	0	
-57.4351	260.581	0	
-65.7002	263.165	0	
-74.4654	266.822	0	
-83.2645	269.297	0	
33.9359	267.125	0	
24.8087	258.951	0	
22.0245	259.409	0	
19.7991	259.638	0	
17.2628	259.332	0	
14.8114	260.344	0	
9.82855	260.425	0	
8.24053	268.235	0	
1.64773	264.005	0	
-3.92057	263.701	0	
-8.51889	263.736	0	
-12.3244	263.906	0	
-15.2019	264.047	0	
-22.3534	265.315	0	
-29.1145	266.201	0	
-37.0089	267.729	0	
-47.3831	269.154	0	
-57.7118	270.266	0	
-66.2691	271.741	0	
-72.1962	273.643	0	
-78.3576	275.421	0	
24.9861	264.608	0	
23.4633	264.004	0	