# vtk DataFile Version 4.1
vtk output
ASCII
DATASET UNSTRUCTURED_GRID

POINTS	8721	float
0	0	0	
0	1	0	
0	2	0	
0	3	0	
0	4	0	
0	5	0	
0	6	0	
0	7	0	
0	8	0	
0	9	0	
0	10	0	
0	11	0	
0	12	0	
0	13	0	
0	14	0	
0	15	0	
0	16	0	
0	17	0	
0	18	0	
0	19	0	
0	20	0	
1	0	0	
1	1	0	
1	2	0	
1	3	0	
1	4	0	
1	5	0	
1	6	0	
1	7	0	
1	8	0	
1	9	0	
1	10	0	
1	11	0	
1	12	0	
1	13	0	
1	14	0	
1	15	0	
1	16	0	
1	17	0	
1	18	0	
1	19	0	
1	20	0	
2	0	0	
2	1	0	
2	2	0	
2	3	0	
2	4	0	
2	5	0	
2	6	0	
2	7	0	
2	8	0	
2	9	0	
2	10	0	
2	11	0	
2	12	0	
2	13	0	
2	14	0	
2	15	0	
2	16	0	
2	17	0	
2	18	0	
2	19	0	
2	20	0	
3	0	0	
3	1	0	
3	2	0	
3	3	0	
3	4	0	
3	5	0	
3	6	0	
3	7	0	
3	8	0	
3	9	0	
3	10	0	
3	11	0	
3	12	0	
3	13	0	
3	14	0	
3	15	0	
3	16	0	
3	17	0	
3	18	0	
3	19	0	
3	20	0	
4	0	0	
4	1	0	
4	2	0	
4	3	0	
4	4	0	
4	5	0	
4	6	0	
4	7	0	
4	8	0	
4	9	0	
4	10	0	
4	11	0	
4	12	0	
4	13	0	
4	14	0	
4	15	0	
4	16	0	
4	17	0	
4	18	0	
4	19	0	
4	20	0	
5	0	0	
5	1	0	
5	2	0	
5	3	0	
5	4	0	
5	5	0	
5	6	0	
5	7	0	
5	8	0	
5	9	0	
5	10	0	
5	11	0	
5	12	0	
5	13	0	
5	14	0	
5	15	0	
5	16	0	
5	17	0	
5	18	0	
5	19	0	
5	20	0	
6	0	0	
6	1	0	
6	2	0	
6	3	0	
6	4	0	
6	5	0	
6	6	0	
6	7	0	
6	8	0	
6	9	0	
6	10	0	
6	11	0	
6	12	0	
6	13	0	
6	14	0	
6	15	0	
6	16	0	
6	17	0	
6	18	0	
6	19	0	
6	20	0	
7	0	0	
7	1	0	
7	2	0	
7	3	0	
7	4	0	
7	5	0	
7	6	0	
7	7	0	
7	8	0	
7	9	0	
7	10	0	
7	11	0	
7	12	0	
7	13	0	
7	14	0	
7	15	0	
7	16	0	
7	17	0	
7	18	0	
7	19	0	
7	20	0	
8	0	0	
8	1	0	
8	2	0	
8	3	0	
8	4	0	
8	5	0	
8	6	0	
8	7	0	
8	8	0	
8	9	0	
8	10	0	
8	11	0	
8	12	0	
8	13	0	
8	14	0	
8	15	0	
8	16	0	
8	17	0	
8	18	0	
8	19	0	
8	20	0	
9	0	0	
9	1	0	
9	2	0	
9	3	0	
9	4	0	
9	5	0	
9	6	0	
9	7	0	
9	8	0	
9	9	0	
9	10	0	
9	11	0	
9	12	0	
9	13	0	
9	14	0	
9	15	0	
9	16	0	
9	17	0	
9	18	0	
9	19	0	
9	20	0	
10	0	0	
10	1	0	
10	2	0	
10	3	0	
10	4	0	
10	5	0	
10	6	0	
10	7	0	
10	8	0	
10	9	0	
10	10	0	
10	11	0	
10	12	0	
10	13	0	
10	14	0	
10	15	0	
10	16	0	
10	17	0	
10	18	0	
10	19	0	
10	20	0	
11	0	0	
11	1	0	
11	2	0	
11	3	0	
11	4	0	
11	5	0	
11	6	0	
11	7	0	
11	8	0	
11	9	0	
11	10	0	
11	11	0	
11	12	0	
11	13	0	
11	14	0	
11	15	0	
11	16	0	
11	17	0	
11	18	0	
11	19	0	
11	20	0	
12	0	0	
12	1	0	
12	2	0	
12	3	0	
12	4	0	
12	5	0	
12	6	0	
12	7	0	
12	8	0	
12	9	0	
12	10	0	
12	11	0	
12	12	0	
12	13	0	
12	14	0	
12	15	0	
12	16	0	
12	17	0	
12	18	0	
12	19	0	
12	20	0	
13	0	0	
13	1	0	
13	2	0	
13	3	0	
13	4	0	
13	5	0	
13	6	0	
13	7	0	
13	8	0	
13	9	0	
13	10	0	
13	11	0	
13	12	0	
13	13	0	
13	14	0	
13	15	0	
13	16	0	
13	17	0	
13	18	0	
13	19	0	
13	20	0	
14	0	0	
14	1	0	
14	2	0	
14	3	0	
14	4	0	
14	5	0	
14	6	0	
14	7	0	
14	8	0	
14	9	0	
14	10	0	
14	11	0	
14	12	0	
14	13	0	
14	14	0	
14	15	0	
14	16	0	
14	17	0	
14	18	0	
14	19	0	
14	20	0	
15	0	0	
15	1	0	
15	2	0	
15	3	0	
15	4	0	
15	5	0	
15	6	0	
15	7	0	
15	8	0	
15	9	0	
15	10	0	
15	11	0	
15	12	0	
15	13	0	
15	14	0	
15	15	0	
15	16	0	
15	17	0	
15	18	0	
15	19	0	
15	20	0	
16	0	0	
16	1	0	
16	2	0	
16	3	0	
16	4	0	
16	5	0	
16	6	0	
16	7	0	
16	8	0	
16	9	0	
16	10	0	
16	11	0	
16	12	0	
16	13	0	
16	14	0	
16	15	0	
16	16	0	
16	17	0	
16	18	0	
16	19	0	
16	20	0	
17	0	0	
17	1	0	
17	2	0	
17	3	0	
17	4	0	
17	5	0	
17	6	0	
17	7	0	
17	8	0	
17	9	0	
17	10	0	
17	11	0	
17	12	0	
17	13	0	
17	14	0	
17	15	0	
17	16	0	
17	17	0	
17	18	0	
17	19	0	
17	20	0	
18	0	0	
18	1	0	
18	2	0	
18	3	0	
18	4	0	
18	5	0	
18	6	0	
18	7	0	
18	8	0	
18	9	0	
18	10	0	
18	11	0	
18	12	0	
18	13	0	
18	14	0	
18	15	0	
18	16	0	
18	17	0	
18	18	0	
18	19	0	
18	20	0	
19	0	0	
19	1	0	
19	2	0	
19	3	0	
19	4	0	
19	5	0	
19	6	0	
19	7	0	
19	8	0	
19	9	0	
19	10	0	
19	11	0	
19	12	0	
19	13	0	
19	14	0	
19	15	0	
19	16	0	
19	17	0	
19	18	0	
19	19	0	
19	20	0	
20	0	0	
20	1	0	
20	2	0	
20	3	0	
20	4	0	
20	5	0	
20	6	0	
20	7	0	
20	8	0	
20	9	0	
20	10	0	
20	11	0	
20	12	0	
20	13	0	
20	14	0	
20	15	0	
20	16	0	
20	17	0	
20	18	0	
20	19	0	
20	20	0	
21	0	0	
21	1	0	
21	2	0	
21	3	0	
21	4	0	
21	5	0	
21	6	0	
21	7	0	
21	8	0	
21	9	0	
21	10	0	
21	11	0	
21	12	0	
21	13	0	
21	14	0	
21	15	0	
21	16	0	
21	17	0	
21	18	0	
21	19	0	
21	20	0	
22	0	0	
22	1	0	
22	2	0	
22	3	0	
22	4	0	
22	5	0	
22	6	0	
22	7	0	
22	8	0	
22	9	0	
22	10	0	
22	11	0	
22	12	0	
22	13	0	
22	14	0	
22	15	0	
22	16	0	
22	17	0	
22	18	0	
22	19	0	
22	20	0	
23	0	0	
23	1	0	
23	2	0	
23	3	0	
23	4	0	
23	5	0	
23	6	0	
23	7	0	
23	8	0	
23	9	0	
23	10	0	
23	11	0	
23	12	0	
23	13	0	
23	14	0	
23	15	0	
23	16	0	
23	17	0	
23	18	0	
23	19	0	
23	20	0	
24	0	0	
24	1	0	
24	2	0	
24	3	0	
24	4	0	
24	5	0	
24	6	0	
24	7	0	
24	8	0	
24	9	0	
24	10	0	
24	11	0	
24	12	0	
24	13	0	
24	14	0	
24	15	0	
24	16	0	
24	17	0	
24	18	0	
24	19	0	
24	20	0	
25	0	0	
25	1	0	
25	2	0	
25	3	0	
25	4	0	
25	5	0	
25	6	0	
25	7	0	
25	8	0	
25	9	0	
25	10	0	
25	11	0	
25	12	0	
25	13	0	
25	14	0	
25	15	0	
25	16	0	
25	17	0	
25	18	0	
25	19	0	
25	20	0	
26	0	0	
26	1	0	
26	2	0	
26	3	0	
26	4	0	
26	5	0	
26	6	0	
26	7	0	
26	8	0	
26	9	0	
26	10	0	
26	11	0	
26	12	0	
26	13	0	
26	14	0	
26	15	0	
26	16	0	
26	17	0	
26	18	0	
26	19	0	
26	20	0	
27	0	0	
27	1	0	
27	2	0	
27	3	0	
27	4	0	
27	5	0	
27	6	0	
27	7	0	
27	8	0	
27	9	0	
27	10	0	
27	11	0	
27	12	0	
27	13	0	
27	14	0	
27	15	0	
27	16	0	
27	17	0	
27	18	0	
27	19	0	
27	20	0	
28	0	0	
28	1	0	
28	2	0	
28	3	0	
28	4	0	
28	5	0	
28	6	0	
28	7	0	
28	8	0	
28	9	0	
28	10	0	
28	11	0	
28	12	0	
28	13	0	
28	14	0	
28	15	0	
28	16	0	
28	17	0	
28	18	0	
28	19	0	
28	20	0	
29	0	0	
29	1	0	
29	2	0	
29	3	0	
29	4	0	
29	5	0	
29	6	0	
29	7	0	
29	8	0	
29	9	0	
29	10	0	
29	11	0	
29	12	0	
29	13	0	
29	14	0	
29	15	0	
29	16	0	
29	17	0	
29	18	0	
29	19	0	
29	20	0	
30	0	0	
30	1	0	
30	2	0	
30	3	0	
30	4	0	
30	5	0	
30	6	0	
30	7	0	
30	8	0	
30	9	0	
30	10	0	
30	11	0	
30	12	0	
30	13	0	
30	14	0	
30	15	0	
30	16	0	
30	17	0	
30	18	0	
30	19	0	
30	20	0	
31	0	0	
31	1	0	
31	2	0	
31	3	0	
31	4	0	
31	5	0	
31	6	0	
31	7	0	
31	8	0	
31	9	0	
31	10	0	
31	11	0	
31	12	0	
31	13	0	
31	14	0	
31	15	0	
31	16	0	
31	17	0	
31	18	0	
31	19	0	
31	20	0	
32	0	0	
32	1	0	
32	2	0	
32	3	0	
32	4	0	
32	5	0	
32	6	0	
32	7	0	
32	8	0	
32	9	0	
32	10	0	
32	11	0	
32	12	0	
32	13	0	
32	14	0	
32	15	0	
32	16	0	
32	17	0	
32	18	0	
32	19	0	
32	20	0	
33	0	0	
33	1	0	
33	2	0	
33	3	0	
33	4	0	
33	5	0	
33	6	0	
33	7	0	
33	8	0	
33	9	0	
33	10	0	
33	11	0	
33	12	0	
33	13	0	
33	14	0	
33	15	0	
33	16	0	
33	17	0	
33	18	0	
33	19	0	
33	20	0	
34	0	0	
34	1	0	
34	2	0	
34	3	0	
34	4	0	
34	5	0	
34	6	0	
34	7	0	
34	8	0	
34	9	0	
34	10	0	
34	11	0	
34	12	0	
34	13	0	
34	14	0	
34	15	0	
34	16	0	
34	17	0	
34	18	0	
34	19	0	
34	20	0	
35	0	0	
35	1	0	
35	2	0	
35	3	0	
35	4	0	
35	5	0	
35	6	0	
35	7	0	
35	8	0	
35	9	0	
35	10	0	
35	11	0	
35	12	0	
35	13	0	
35	14	0	
35	15	0	
35	16	0	
35	17	0	
35	18	0	
35	19	0	
35	20	0	
36	0	0	
36	1	0	
36	2	0	
36	3	0	
36	4	0	
36	5	0	
36	6	0	
36	7	0	
36	8	0	
36	9	0	
36	10	0	
36	11	0	
36	12	0	
36	13	0	
36	14	0	
36	15	0	
36	16	0	
36	17	0	
36	18	0	
36	19	0	
36	20	0	
37	0	0	
37	1	0	
37	2	0	
37	3	0	
37	4	0	
37	5	0	
37	6	0	
37	7	0	
37	8	0	
37	9	0	
37	10	0	
37	11	0	
37	12	0	
37	13	0	
37	14	0	
37	15	0	
37	16	0	
37	17	0	
37	18	0	
37	19	0	
37	20	0	
38	0	0	
38	1	0	
38	2	0	
38	3	0	
38	4	0	
38	5	0	
38	6	0	
38	7	0	
38	8	0	
38	9	0	
38	10	0	
38	11	0	
38	12	0	
38	13	0	
38	14	0	
38	15	0	
38	16	0	
38	17	0	
38	18	0	
38	19	0	
38	20	0	
39	0	0	
39	1	0	
39	2	0	
39	3	0	
39	4	0	
39	5	0	
39	6	0	
39	7	0	
39	8	0	
39	9	0	
39	10	0	
39	11	0	
39	12	0	
39	13	0	
39	14	0	
39	15	0	
39	16	0	
39	17	0	
39	18	0	
39	19	0	
39	20	0	
40	0	0	
40	1	0	
40	2	0	
40	3	0	
40	4	0	
40	5	0	
40	6	0	
40	7	0	
40	8	0	
40	9	0	
40	10	0	
40	11	0	
40	12	0	
40	13	0	
40	14	0	
40	15	0	
40	16	0	
40	17	0	
40	18	0	
40	19	0	
40	20	0	
41	0	0	
41	1	0	
41	2	0	
41	3	0	
41	4	0	
41	5	0	
41	6	0	
41	7	0	
41	8	0	
41	9	0	
41	10	0	
41	11	0	
41	12	0	
41	13	0	
41	14	0	
41	15	0	
41	16	0	
41	17	0	
41	18	0	
41	19	0	
41	20	0	
42	0	0	
42	1	0	
42	2	0	
42	3	0	
42	4	0	
42	5	0	
42	6	0	
42	7	0	
42	8	0	
42	9	0	
42	10	0	
42	11	0	
42	12	0	
42	13	0	
42	14	0	
42	15	0	
42	16	0	
42	17	0	
42	18	0	
42	19	0	
42	20	0	
43	0	0	
43	1	0	
43	2	0	
43	3	0	
43	4	0	
43	5	0	
43	6	0	
43	7	0	
43	8	0	
43	9	0	
43	10	0	
43	11	0	
43	12	0	
43	13	0	
43	14	0	
43	15	0	
43	16	0	
43	17	0	
43	18	0	
43	19	0	
43	20	0	
44	0	0	
44	1	0	
44	2	0	
44	3	0	
44	4	0	
44	5	0	
44	6	0	
44	7	0	
44	8	0	
44	9	0	
44	10	0	
44	11	0	
44	12	0	
44	13	0	
44	14	0	
44	15	0	
44	16	0	
44	17	0	
44	18	0	
44	19	0	
44	20	0	
45	0	0	
45	1	0	
45	2	0	
45	3	0	
45	4	0	
45	5	0	
45	6	0	
45	7	0	
45	8	0	
45	9	0	
45	10	0	
45	11	0	
45	12	0	
45	13	0	
45	14	0	
45	15	0	
45	16	0	
45	17	0	
45	18	0	
45	19	0	
45	20	0	
46	0	0	
46	1	0	
46	2	0	
46	3	0	
46	4	0	
46	5	0	
46	6	0	
46	7	0	
46	8	0	
46	9	0	
46	10	0	
46	11	0	
46	12	0	
46	13	0	
46	14	0	
46	15	0	
46	16	0	
46	17	0	
46	18	0	
46	19	0	
46	20	0	
47	0	0	
47	1	0	
47	2	0	
47	3	0	
47	4	0	
47	5	0	
47	6	0	
47	7	0	
47	8	0	
47	9	0	
47	10	0	
47	11	0	
47	12	0	
47	13	0	
47	14	0	
47	15	0	
47	16	0	
47	17	0	
47	18	0	
47	19	0	
47	20	0	
48	0	0	
48	1	0	
48	2	0	
48	3	0	
48	4	0	
48	5	0	
48	6	0	
48	7	0	
48	8	0	
48	9	0	
48	10	0	
48	11	0	
48	12	0	
48	13	0	
48	14	0	
48	15	0	
48	16	0	
48	17	0	
48	18	0	
48	19	0	
48	20	0	
49	0	0	
49	1	0	
49	2	0	
49	3	0	
49	4	0	
49	5	0	
49	6	0	
49	7	0	
49	8	0	
49	9	0	
49	10	0	
49	11	0	
49	12	0	
49	13	0	
49	14	0	
49	15	0	
49	16	0	
49	17	0	
49	18	0	
49	19	0	
49	20	0	
50	0	0	
50	1	0	
50	2	0	
50	3	0	
50	4	0	
50	5	0	
50	6	0	
50	7	0	
50	8	0	
50	9	0	
50	10	0	
50	11	0	
50	12	0	
50	13	0	
50	14	0	
50	15	0	
50	16	0	
50	17	0	
50	18	0	
50	19	0	
50	20	0	
51	0	0	
51	1	0	
51	2	0	
51	3	0	
51	4	0	
51	5	0	
51	6	0	
51	7	0	
51	8	0	
51	9	0	
51	10	0	
51	11	0	
51	12	0	
51	13	0	
51	14	0	
51	15	0	
51	16	0	
51	17	0	
51	18	0	
51	19	0	
51	20	0	
52	0	0	
52	1	0	
52	2	0	
52	3	0	
52	4	0	
52	5	0	
52	6	0	
52	7	0	
52	8	0	
52	9	0	
52	10	0	
52	11	0	
52	12	0	
52	13	0	
52	14	0	
52	15	0	
52	16	0	
52	17	0	
52	18	0	
52	19	0	
52	20	0	
53	0	0	
53	1	0	
53	2	0	
53	3	0	
53	4	0	
53	5	0	
53	6	0	
53	7	0	
53	8	0	
53	9	0	
53	10	0	
53	11	0	
53	12	0	
53	13	0	
53	14	0	
53	15	0	
53	16	0	
53	17	0	
53	18	0	
53	19	0	
53	20	0	
54	0	0	
54	1	0	
54	2	0	
54	3	0	
54	4	0	
54	5	0	
54	6	0	
54	7	0	
54	8	0	
54	9	0	
54	10	0	
54	11	0	
54	12	0	
54	13	0	
54	14	0	
54	15	0	
54	16	0	
54	17	0	
54	18	0	
54	19	0	
54	20	0	
55	0	0	
55	1	0	
55	2	0	
55	3	0	
55	4	0	
55	5	0	
55	6	0	
55	7	0	
55	8	0	
55	9	0	
55	10	0	
55	11	0	
55	12	0	
55	13	0	
55	14	0	
55	15	0	
55	16	0	
55	17	0	
55	18	0	
55	19	0	
55	20	0	
56	0	0	
56	1	0	
56	2	0	
56	3	0	
56	4	0	
56	5	0	
56	6	0	
56	7	0	
56	8	0	
56	9	0	
56	10	0	
[...]
POINT_DATA	8721
VECTORS u0 float
2.66176e-010	2.35778e-010	0	
4.55612e-010	4.13148e-010	0	
4.37298e-010	4.07169e-010	0	
2.76558e-010	2.53771e-010	0	
7.88123e-011	3.01978e-011	0	
-6.87828e-009	-4.81665e-009	0	
-6.26509e-010	-1.63371e-009	0	
1.02033e-009	-1.28369e-009	0	
-3.44312e-009	-1.85331e-009	0	
-6.63054e-012	-4.65034e-010	0	
1.39362e-009	-4.9418e-010	0	
-5.81847e-010	-6.00269e-011	0	
-1.22085e-010	-3.52068e-011	0	
6.45643e-011	8.71164e-011	0	
3.92166e-011	2.52647e-010	0	
1.16253e-009	2.42583e-010	0	
1.82536e-010	1.86028e-010	0	
4.31612e-010	4.05802e-010	0	
4.20136e-010	4.05357e-010	0	
3.97192e-010	4.10914e-010	0	
1.64798e-010	2.34248e-010	0	
3.29708	1.39874	0	
1.67892	0.534644	0	
0.656422	0.154861	0	
-0.619912	0.0390338	0	
0.0948041	-0.41166	0	
23.1335	-130.331	0	
-52.0966	-212.13	0	
-92.1676	-214.071	0	
-118.285	-131.7	0	
-9.24052	-100.407	0	
3.07863	-91.4276	0	
-38.7484	-82.1725	0	
-7.70282	-12.5911	0	
0.110713	4.78473	0	
-2.58466	6.47467	0	
11.481	12.9452	0	
0.212734	-0.708584	0	
0.501019	-0.372675	0	
-0.399036	-0.0183939	0	
-1.41463	0.37239	0	
-3.07802	1.15331	0	
5.81578	4.03217	0	
3.24141	3.26934	0	
1.29553	2.98456	0	
-1.14531	2.90983	0	
-7.97449	-176.479	0	
45.0451	-198.754	0	
-57.2465	-281.902	0	
-183.384	-353.758	0	
-189.122	-319.907	0	
-50.7787	-276.142	0	
-66.8604	-187.99	0	
-57.0624	-129.31	0	
-31.3263	-89.9145	0	
-6.93464	-10.121	0	
-4.30876	-1.93584	0	
8.22701	-0.880137	0	
23.1006	6.5626	0	
1.22912	2.58383	0	
-1.07913	2.68153	0	
-2.97914	3.01707	0	
-5.53389	3.77565	0	
8.02526	7.25852	0	
4.48347	6.56513	0	
1.77106	6.62046	0	
-0.0733889	7.03132	0	
-0.504572	7.59406	0	
23.8699	-279.494	0	
-70.4557	-314.672	0	
-190.382	-367.616	0	
-204.653	-445.966	0	
-146.571	-427.477	0	
-154.775	-352.781	0	
-115.269	-251.832	0	
-63.2731	-135.737	0	
-31.8517	-46.9651	0	
0.981223	8.92958	0	
-6.18845	10.7888	0	
0.567449	7.23	0	
0.177346	6.66844	0	
-1.60783	6.26361	0	
-4.24265	6.2269	0	
-7.71796	6.92443	0	
10.2899	11.284	0	
5.6013	10.4279	0	
2.05633	9.66	0	
0.772373	9.57373	0	
-0.0317025	9.69937	0	
-0.73691	9.91143	0	
-74.9883	-147.99	0	
-140.847	-239.672	0	
-186.433	-373.018	0	
-208.835	-380.628	0	
-226.296	-252.458	0	
-262.394	-161.944	0	
-128.469	-41.4503	0	
-62.5795	0.492823	0	
-12.1782	14.9325	0	
0.790895	9.50345	0	
0.0980212	9.29611	0	
-0.6722	9.1735	0	
-1.90012	9.25581	0	
-5.36273	10.0171	0	
-9.97952	10.8726	0	
12.3384	15.9365	0	
7.73675	15.0852	0	
2.16432	11.4136	0	
1.35	11.6198	0	
0.557686	11.7109	0	
-0.721164	11.6081	0	
-34.1106	-80.0237	0	
-76.5029	-168.428	0	
-146.836	-209.729	0	
-229.29	-146.771	0	
-239.795	-65.8264	0	
-228.527	-20.8535	0	
-142.359	3.49064	0	
-65.9945	3.10626	0	
-35.2147	1.89556	0	
0.779779	11.1873	0	
-0.492327	11.2891	0	
-1.25745	11.1925	0	
-2.01868	10.9764	0	
-7.48875	14.6073	0	
-12.0313	15.4573	0	
14.2456	20.4712	0	
9.82817	19.6066	0	
82.2494	46.6421	0	
1.75158	13.5979	0	
1.24976	14.0451	0	
0.515028	14.6054	0	
1.38308	15.2453	0	
-22.6919	-95.3111	0	
-115.708	-108.755	0	
-231.472	-67.7137	0	
-255.002	14.8003	0	
-179.353	49.3193	0	
-109.427	57.2002	0	
-46.3613	51.3057	0	
-1.24442	14.8338	0	
-0.43905	14.1948	0	
-1.1982	13.6285	0	
-1.67013	13.1695	0	
-86.7094	54.88	0	
-9.56822	19.0773	0	
-13.9441	19.9404	0	
16.1487	24.7862	0	
11.9572	23.9233	0	
59.4661	48.7969	0	
51.4809	9.21262	0	
1.80792	16.1674	0	
1.44336	16.0908	0	
1.95648	16.2612	0	
3.0003	16.6161	0	
-71.017	-31.7696	0	
-178.379	-54.7516	0	
-279.372	3.31895	0	
-154.283	43.4411	0	
-91.2079	34.1559	0	
-2.79217	16.2695	0	
-1.81725	15.9141	0	
-1.3645	15.7427	0	
-1.78476	15.8198	0	
-66.002	2.20858	0	
-65.8697	52.5666	0	
-11.6832	23.3625	0	
-15.8547	24.2239	0	
18.0305	28.8542	0	
14.1024	27.9911	0	
49.4332	40.9508	0	
61.2022	47.6282	0	
1.72505	16.72	0	
1.95681	16.7771	0	
2.63973	16.8121	0	
3.24017	16.8164	0	
3.21228	16.8203	0	
-152.375	26.6442	0	
-296.731	-9.17765	0	
-154.597	-5.14874	0	
-2.92637	16.5488	0	
-3.03156	16.5446	0	
-2.50174	16.5385	0	
-1.88201	16.4993	0	
-1.70428	16.4376	0	
-78.0648	49.2488	0	
-61.7493	50.9775	0	
-13.8132	27.4218	0	
-17.7446	28.2833	0	
19.9024	32.6441	0	
16.2581	31.7811	0	
47.5991	37.2194	0	
57.7198	100.817	0	
-57.5467	131.315	0	
2.25483	17.0221	0	
3.35143	17.4304	0	
3.73043	17.6269	0	
3.09574	17.5574	0	
-140.234	90.4774	0	
-298.24	257.977	0	
-355.015	178.807	0	
-2.80818	17.3697	0	
-3.52211	17.4378	0	
-3.21704	17.2369	0	
-2.18567	16.8233	0	
-66.1589	92.7547	0	
-106.038	67.2011	0	
-63.0753	40.0801	0	
-15.9535	31.2271	0	
-19.6244	32.0885	0	
21.771	36.143	0	
18.4169	35.28	0	
17.5813	74.3969	0	
-38.8382	151.2	0	
-117.876	233.893	0	
-75.0076	173.981	0	
3.98461	18.6964	0	
4.75522	19.4031	0	
3.39473	19.9452	0	
1.68985	20.302	0	
-215.75	223.617	0	
-1.38155	20.219	0	
-3.12019	19.8522	0	
-4.54588	19.3019	0	
-3.85478	18.5916	0	
-35.8548	95.2146	0	
-125.918	156.457	0	
-117.62	76.7121	0	
-67.851	49.0048	0	
-18.0977	34.7642	0	
-21.4998	35.6254	0	
23.6438	39.3518	0	
20.5713	38.4889	0	
-26.0744	104.069	0	
-131.153	202.413	0	
-238.774	305.641	0	
-125.843	206.459	0	
-49.3509	109.621	0	
6.25367	23.3437	0	
3.99162	23.2228	0	
2.00229	23.3446	0	
0.146839	23.7205	0	
-1.7039	23.3213	0	
-3.72358	23.1893	0	
-6.03424	23.3072	0	
-13.8764	49.1677	0	
-38.108	80.2473	0	
-116.747	135.659	0	
-115.011	89.8287	0	
-64.6051	63.1614	0	
-20.2393	38.0311	0	
-23.3772	38.8922	0	
25.5281	42.2865	0	
22.714	41.4236	0	
-77.452	95.9839	0	
-231.092	214.856	0	
-245.043	325.294	0	
-93.9455	183.894	0	
-26.6539	76.6288	0	
6.30967	26.0913	0	
4.77153	26.3465	0	
2.35952	26.4841	0	
0.147251	26.5681	0	
-2.06795	26.4834	0	
-4.4991	26.349	0	
-6.08613	26.0998	0	
-20.8524	70.1023	0	
-44.5469	113.596	0	
-81.5682	149.68	0	
-89.208	84.9807	0	
-58.685	51.8081	0	
-22.3716	41.039	0	
-25.2633	41.9	0	
27.4316	44.9777	0	
24.8374	44.1148	0	
-117.139	131.908	0	
-360.41	273.128	0	
-250.886	353.362	0	
-109.17	219.124	0	
-25.6356	178.75	0	
53.1576	169.158	0	
6.08497	30.6816	0	
2.65718	30.5336	0	
0.144737	30.5106	0	
-2.37091	30.536	0	
-5.80243	30.6849	0	
-38.3189	144.112	0	
-18.8891	140.306	0	
18.7941	139.151	0	
-19.7804	156.154	0	
-51.1752	98.7783	0	
-43.5123	63.9374	0	
-24.4879	43.8127	0	
-27.165	44.6737	0	
29.3611	47.4709	0	
26.9336	46.6084	0	
-145.993	173.882	0	
-424.207	364.236	0	
-108.241	256.184	0	
-45.9829	138.364	0	
13.8149	35.8067	0	
9.78686	35.8139	0	
6.28281	35.33	0	
2.76861	34.9503	0	
0.142808	34.8243	0	
-2.48511	34.9499	0	
-6.00188	35.3274	0	
-9.51167	35.8084	0	
-13.5406	35.8014	0	
12.9488	94.3004	0	
7.72835	133.355	0	
26.2178	129.882	0	
-30.3682	60.3473	0	
-26.5809	46.3903	0	
-29.0884	47.2508	0	
31.3288	49.8302	0	
28.997	48.9659	0	
-169.281	142.814	0	
-302.618	183.362	0	
22.2449	40.7268	0	
17.7383	40.7442	0	
13.7745	40.3474	0	
9.82804	39.9737	0	
6.33278	39.5829	0	
2.74024	39.0612	0	
0.142626	38.4018	0	
-2.4576	39.059	0	
-6.05314	39.5789	0	
-9.55308	39.9681	0	
-13.4997	40.3407	0	
-17.4586	40.7376	0	
-21.9563	40.7207	0	
63.9139	115.777	0	
54.9167	121.475	0	
-28.6458	48.8245	0	
-31.0451	49.6867	0	
33.3174	52.118	0	
31.0026	51.2681	0	
-205.039	204.875	0	
26.9861	45.8618	0	
22.2222	45.6628	0	
17.7723	45.3615	0	
13.8422	44.9621	0	
9.81045	44.4279	0	
6.43359	43.6716	0	
2.57562	43.6191	0	
-196.057	229.399	0	
-2.29375	43.6155	0	
-6.15391	43.6679	0	
-9.53658	44.4187	0	
-13.5666	44.9492	0	
-17.4928	45.3463	0	
-21.9326	45.6466	0	
-26.6807	45.8457	0	
148.667	257.365	0	
-30.6579	51.1857	0	
-33.0168	52.0332	0	
35.47	54.468	0	
33.0446	53.6128	0	
30.3062	52.707	0	
26.7171	51.5955	0	
22.3077	50.9253	0	
17.7534	50.3128	0	
13.9451	49.5104	0	
9.64877	49.4552	0	
-40.5815	174.953	0	
-82.2265	228.049	0	
-124.744	227.65	0	
-1.15866	134.321	0	
-4.37971	105.768	0	
-9.377	49.4359	0	
-13.6687	49.4903	0	
-17.4745	50.2854	0	
-22.0167	50.8933	0	
-26.4121	51.5598	0	
-29.9879	52.6656	0	
-32.7117	53.5635	0	
-35.1481	54.4128	0	
37.8878	57.8616	0	
34.1455	57.1274	0	
30.4843	56.7899	0	
26.4858	56.4217	0	
22.4549	55.9446	0	
17.5963	55.9218	0	
-61.3526	89.1801	0	
-64.1712	145.78	0	
-71.7511	208.592	0	
-88.31	266.039	0	
-50.3777	263.283	0	
-9.78871	182.554	0	
3.49165	134.836	0	
-13.9791	119.65	0	
2.74244	88.9853	0	
-17.3194	55.8737	0	
-22.1626	55.8958	0	
-26.1808	56.3685	0	
-30.1654	56.7345	0	
-33.8144	57.0715	0	
-37.548	57.8033	0	
39.8261	62.9167	0	
35.0305	62.3641	0	
30.4255	61.8634	0	
26.2073	61.4426	0	
156.441	347.688	0	
10.3306	161.031	0	
-64.5235	159.125	0	
-77.5305	160.582	0	
-81.3864	223.863	0	
-91.8575	276.501	0	
-42.8185	306.186	0	
-17.2402	229.204	0	
-9.31767	170.065	0	
-7.60468	136.038	0	
3.64841	114.772	0	
-18.5168	112.978	0	
-84.5845	192.615	0	
-25.9032	61.3711	0	
-30.1078	61.7906	0	
-34.6977	62.2901	0	
-39.4769	62.8408	0	
40.6874	68.6373	0	
35.7565	68.5072	0	
31.1678	68.5541	0	
27.1537	68.8003	0	
22.7405	80.8711	0	
1.14263	97.964	0	
-31.0714	125.623	0	
-55.3577	158.7	0	
-72.1969	207.17	0	
-77.3086	264.773	0	
-44.096	315.778	0	
-20.841	242.228	0	
-11.0879	184.613	0	
-15.6796	161.65	0	
-27.3413	131.723	0	
-38.2383	104.09	0	
-36.3346	88.3465	0	
-26.851	68.7014	0	
-30.8497	68.4564	0	
-35.4217	68.4104	0	
-40.3344	68.5401	0	
40.7584	73.9241	0	
36.3053	74.0878	0	
31.9759	74.1089	0	
27.1844	73.9468	0	
15.5568	94.7389	0	
-6.31206	119.96	0	
-35.4303	144.701	0	
-58.045	169.713	0	
-68.3399	205.939	0	
-61.6508	251.457	0	
-43.6218	307.779	0	
-26.1129	245.276	0	
-16.0946	198.244	0	
-17.1777	170.699	0	
-22.5812	137.237	0	
-29.8304	109.403	0	
-30.0279	87.9899	0	
-26.881	73.8283	0	
-31.6558	73.9901	0	
-35.969	73.9697	0	
-40.4051	73.8068	0	
81.4096	110.383	0	
36.6809	79.4808	0	
32.8315	79.9304	0	
28.2744	80.3883	0	
24.7469	80.8807	0	
-1.65133	130.957	0	
-6.19708	136.775	0	
-31.1478	156.489	0	
-45.9846	184.228	0	
-51.9757	221.94	0	
-57.8739	285.002	0	
-44.9637	233.466	0	
-34.6281	195.858	0	
-26.3931	170.671	0	
-23.6355	149.856	0	
-23.3993	129.773	0	
-24.4297	80.7359	0	
-27.9625	80.2472	0	
-32.5106	79.7916	0	
-36.3437	79.3428	0	
-79.6387	106.546	0	
102.757	133.78	0	
64.5275	100.928	0	
33.7764	86.187	0	
29.1974	86.0284	0	
25.1523	86.0116	0	
20.9198	86.1217	0	
0.724598	102.021	0	
-24.3265	122.628	0	
-40.6572	148.615	0	
-58.08	189.54	0	
-82.2454	258.14	0	
-56.9818	216.434	0	
-41.8757	169.204	0	
-30.6304	140.138	0	
-23.3348	113.926	0	
-20.5903	85.971	0	
-24.8316	85.8627	0	
-28.8806	85.8805	0	
-33.4577	86.039	0	
-69.9784	94.0985	0	
-95.6443	121.363	0	
133.853	166.405	0	
69.9784	121.884	0	
33.7841	91.0851	0	
29.8908	91.3006	0	
25.7903	91.3449	0	
20.8572	91.205	0	
-7.41197	116.944	0	
-30.7454	136.833	0	
-47.4843	157.144	0	
-72.9447	197.029	0	
-105.965	256.538	0	
-59.3306	205.529	0	
-34.7979	163.024	0	
-25.4287	129.651	0	
-15.0083	106.366	0	
-20.5267	91.0577	0	
-25.4664	91.1968	0	
-29.5724	91.1518	0	
-33.4664	90.9358	0	
-74.4477	102.376	0	
-122.439	134.931	0	
57.4013	207.358	0	
47.2296	166.676	0	
37.3852	136.038	0	
30.4283	96.7449	0	
26.8949	97.3772	0	
21.2988	97.8178	0	
15.2842	98.0784	0	
4.41157	112.558	0	
-11.5679	142.517	0	
-55.0116	197.431	0	
-127.389	272.504	0	
-82.1637	226.122	0	
-50.9621	179.619	0	
-31.4122	134.743	0	
-14.9201	97.929	0	
-20.9596	97.671	0	
-26.5687	97.2319	0	
-30.1098	96.6002	0	
-50.3024	114.802	0	
-84.0712	125.297	0	
-148.163	133.222	0	
36.3451	206.718	0	
26.3537	175.371	0	
15.4953	152.753	0	
17.6287	129.343	0	
28.5223	105.592	0	
21.9517	105.382	0	
15.3614	105.174	0	
1.65782	126.237	0	
-18.4049	154.384	0	
-63.0259	209.882	0	
-142.146	288.31	0	
-92.3446	230.07	0	
-40.6615	170.01	0	
-24.2793	128.249	0	
-14.996	105.042	0	
-21.6072	105.248	0	
-28.1961	105.458	0	
-40.509	115.296	0	
-58.407	133.044	0	
-95.1079	145.828	0	
-141.736	151.591	0	
5.71761	206.659	0	
4.72525	175.046	0	
11.8952	155.712	0	
18.2028	130.306	0	
28.6115	112.694	0	
22.6348	112.973	0	
16.9028	113.406	0	
13.0443	114.006	0	
-16.4457	172.854	0	
-53.8605	216.947	0	
-126.567	279.245	0	
-110.276	252.06	0	
-37.7247	176.445	0	
-12.6231	113.886	0	
-16.5265	113.289	0	
-22.2883	112.857	0	
-28.2858	112.578	0	
-46.6254	130.106	0	
-63.9996	142.988	0	
-95.3614	152.36	0	
-136.042	162.707	0	
-32.5294	217.481	0	
-20.9449	176.649	0	
-10.76	165.045	0	
6.64369	149.336	0	
16.9063	132.566	0	
23.1709	119.832	0	
17.9796	119.682	0	
13.5442	119.697	0	
9.20332	119.875	0	
-28.9448	150.758	0	
-100.122	221.837	0	
-101.212	191.928	0	
-8.73956	119.791	0	
-13.1207	119.613	0	
-17.5969	119.597	0	
-22.8253	119.746	0	
-34.0144	121.623	0	
-51.5427	129.813	0	
-61.8044	147.102	0	
-92.1796	164.455	0	
-133.792	174.272	0	
-79.9958	257.731	0	
-38.3765	205.584	0	
-34.5042	167.077	0	
13.7815	141.388	0	
20.4238	130.035	0	
23.124	125.202	0	
18.6395	125.335	0	
14.2322	125.322	0	
9.18512	125.161	0	
-41.1987	174.418	0	
-92.0096	215.272	0	
-77.4495	135.094	0	
-8.72179	125.113	0	
-13.805	125.273	0	
-18.253	125.286	0	
-22.7792	125.154	0	
-36.4323	135.534	0	
-54.8573	143.935	0	
-57.3644	159.99	0	
-75.659	176.55	0	
-123.263	186.224	0	
-121.409	289.482	0	
-64.0523	258.43	0	
-89.0201	268.862	0	
-46.2774	261.253	0	
11.6953	196.451	0	
31.4205	174.199	0	
19.0839	130.887	0	
15.2467	131.424	0	
9.87619	131.865	0	
4.64868	132.261	0	
-89.5896	250.238	0	
-4.17467	132.244	0	
-9.41519	131.847	0	
-14.8118	131.407	0	
-18.6949	130.873	0	
-55.5396	185.157	0	
-32.427	213.566	0	
-27.995	211.966	0	
-31.4523	205.539	0	
-59.2076	202.138	0	
-107.23	206.644	0	
-172.24	312.573	0	
-99.3008	264.234	0	
-92.9403	248.911	0	
-69.1949	236.941	0	
-39.2941	231.348	0	
1.27174	232.013	0	
-6.0104	264.81	0	
16.729	138.957	0	
10.558	138.766	0	
5.05864	138.966	0	
0.239142	139.435	0	
-4.58459	138.961	0	
-10.0959	138.76	0	
-16.2787	138.948	0	
-11.1316	259.465	0	
-33.7962	193.592	0	
-19.0896	192.047	0	
-16.9142	196.609	0	
-23.6676	204.706	0	
-50.2317	213.521	0	
-96.9532	225.818	0	
-180.798	319.296	0	
-111.871	260.478	0	
-86.1431	223.537	0	
-65.7094	200.86	0	
-36.009	187.117	0	
-4.4123	175.062	0	
12.6811	159.065	0	
17.0879	145.653	0	
11.1162	145.493	0	
5.53473	145.277	0	
0.239988	145.216	0	
-5.05899	145.276	0	
-10.6508	145.491	0	
-16.6323	145.649	0	
-22.625	149.811	0	
-26.9326	159.148	0	
-21.4232	172.224	0	
-17.0513	185.653	0	
-26.4697	204.123	0	
-54.0239	229.423	0	
-99.7004	256.554	0	
-181.024	343.095	0	
-107.605	280.143	0	
-67.5309	226.783	0	
-49.4534	185.151	0	
-28.7056	160.529	0	
-3.49492	152.12	0	
15.4277	150.784	0	
17.122	151.756	0	
11.6542	151.904	0	
5.98312	151.936	0	
0.241139	151.912	0	
-5.50493	151.936	0	
-11.1853	151.905	0	
-16.6665	151.761	0	
-24.4985	155.485	0	
-28.519	159.141	0	
-25.74	165.568	0	
-24.1661	180.167	0	
-35.2119	218.106	0	
-45.9588	259.524	0	
-60.7128	288.575	0	
-164.613	350.715	0	
-88.8456	289.865	0	
-52.745	245.84	0	
-36.2318	212.918	0	
-20.2463	194.483	0	
-21.6839	192.252	0	
-7.48151	188.876	0	
8.99357	177.104	0	
12.0685	158.577	0	
6.42962	159.121	0	
0.243068	159.424	0	
-5.94656	159.122	0	
-11.597	158.58	0	
-15.2598	174.351	0	
-13.1128	187.094	0	
-11.7262	202.562	0	
-18.3629	216.977	0	
-24.6967	231.94	0	
-31.2333	246.379	0	
-37.0305	264.597	0	
-49.0191	289.809	0	
-159.013	366.198	0	
-85.5575	313.543	0	
-50.4079	280.794	0	
-28.6833	254.852	0	
-10.3235	230.344	0	
-15.0735	203.081	0	
-3.33411	175.257	0	
11.5514	171.769	0	
10.1853	168.429	0	
5.83796	167.985	0	
0.246737	167.806	0	
-5.34402	167.981	0	
-9.6939	168.422	0	
-18.52	178.427	0	
-18.9916	186.837	0	
-17.0467	213.034	0	
-18.7579	224.908	0	
-21.0427	234	0	
-26.3897	244.956	0	
-33.2089	259.222	0	
-44.3621	284.832	0	
-149.198	347.11	0	
-78.4579	294.923	0	
-42.9732	263.181	0	
-22.5955	240.89	0	
-9.96369	229.076	0	
0.354277	222.572	0	
21.4254	221.363	0	
67.5486	274.312	0	
10.0789	173.991	0	
4.8477	174.315	0	
0.250305	174.5	0	
-4.34723	174.312	0	
-9.59081	173.987	0	
-72.4949	278.817	0	
-26.0232	209.054	0	
-17.2901	211.063	0	
-17.5959	218.533	0	
-20.0382	226.351	0	
-25.6294	236.697	0	
-33.331	250.183	0	
-45.8696	274.332	0	
-115.025	332.071	0	
-58.4814	272.639	0	
-29.7178	241.212	0	
-15.6162	220.99	0	
-6.26131	209.62	0	
5.03772	200.157	0	
17.0827	188.492	0	
14.5495	180.988	0	
9.15124	180.75	0	
3.72293	180.386	0	
0.251335	179.718	0	
-3.20868	180.402	0	
-8.68134	180.771	0	
-14.1662	181.006	0	
-21.0221	186.452	0	
-19.1903	196.172	0	
-20.0594	206.827	0	
-22.8488	219.863	0	
-29.9363	235.691	0	
-39.3738	252.057	0	
-55.8873	279.216	0	
-67.4328	357.11	0	
-27.1948	283.919	0	
-10.3862	240.346	0	
-5.45475	215.625	0	
-1.78178	198.877	0	
9.42571	188.934	0	
18.0025	186.925	0	
14.4979	187.57	0	
8.26498	187.849	0	
2.1567	188.145	0	
-10.9182	228.239	0	
-1.61394	188.248	0	
-7.7984	187.951	0	
-14.1161	187.671	0	
-21.9326	189.792	0	
-23.1947	194.73	0	
-24.9748	205.877	0	
-29.4694	221.933	0	
-36.11	238.619	0	
-44.8849	255.964	0	
-61.9189	284.056	0	
-35.7738	343.182	0	
-5.23031	287.684	0	
5.9855	252.035	0	
9.20892	231.295	0	
14.9502	215.857	0	
20.3226	203.594	0	
19.1693	195.719	0	
13.4048	195.423	0	
7.21214	195.133	0	
2.02448	194.76	0	
-6.44274	244.505	0	
-1.47858	194.949	0	
-6.73745	195.327	0	
-13.0268	195.621	0	
-18.9037	195.918	0	
-22.6398	204.147	0	
-26.0921	217.715	0	
-31.7906	229.921	0	
-38.687	242.49	0	
-49.3855	259.556	0	
-68.6235	285.944	0	
-5.21946	327.834	0	
13.0322	279.836	0	
18.3225	250.989	0	
19.3611	231.972	0	
20.3658	214.974	0	
22.9474	205.182	0	
19.0867	202.761	0	
12.4436	203.049	0	
5.82988	203.341	0	
-0.669078	225.863	0	
2.23655	254.817	0	
2.65454	231.584	0	
-5.33882	203.658	0	
-12.0641	203.365	0	
-18.8211	203.076	0	
-25.3522	210.331	0	
-29.6773	221.586	0	
-33.9217	230.886	0	
-40.6781	242.194	0	
-52.4313	259.779	0	
-74.0692	288.067	0	
21.6331	309.85	0	
26.3885	275.297	0	
25.8742	251.724	0	
24.8139	235.748	0	
24.9791	221.796	0	
23.5091	211.323	0	
17.8364	210.995	0	
11.4361	210.717	0	
5.72948	210.394	0	
-8.76528	231.157	0	
0.632003	253.063	0	
13.4176	239.813	0	
-5.23715	210.828	0	
-11.0519	211.154	0	
-17.5633	211.435	0	
-23.3398	211.767	0	
-29.1716	220.484	0	
-34.5646	230.951	0	
-42.663	244.009	0	
-55.4278	260.476	0	
-78.702	286.998	0	
39.6539	301.362	0	
35.9244	270.069	0	
32.3621	250.299	0	
30.3893	236.977	0	
28.0453	226.175	0	
23.4074	218.339	0	
16.8191	218.636	0	
10.2013	218.927	0	
4.18781	232.386	0	
1.56166	260.55	0	
5.15021	278.312	0	
21.9155	257.295	0	
5.2327	241.772	0	
-9.81178	219.486	0	
-16.5404	219.194	0	
-23.2364	218.896	0	
-31.0037	226.332	0	
-36.0017	234.183	0	
-43.6961	245.226	0	
-57.4664	262.882	0	
-82.7023	290.215	0	
54.0799	302.548	0	
43.2632	270.493	0	
36.2368	250.934	0	
31.3848	236.903	0	
27.4229	226.833	0	
22.0701	226.492	0	
15.834	226.228	0	
10.1195	225.936	0	
-2.68406	241.662	0	
-10.7853	264.413	0	
8.38966	286.372	0	
14.6917	258.907	0	
5.70008	242.237	0	
-9.73051	226.608	0	
-15.5537	226.9	0	
-21.8812	227.168	0	
-27.298	227.514	0	
-35.3175	236.941	0	
-44.3511	248.749	0	
-57.9448	266.196	0	
-80.5836	291.222	0	
61.4324	295.785	0	
45.8599	268.32	0	
37.6773	253.978	0	
34.201	243.158	0	
27.3137	233.558	0	
21.0202	233.861	0	
14.675	234.155	0	
8.52167	243.309	0	
0.433226	254.851	0	
-6.87987	273.026	0	
5.74305	288.053	0	
21.8594	267.166	0	
9.41674	257.257	0	
-6.723	243.179	0	
-14.3989	234.918	0	
-20.822	234.623	0	
-27.1856	234.318	0	
-36.813	244.967	0	
-40.735	253.062	0	
-53.6269	265.024	0	
-77.9494	288.198	0	
68.0918	297.417	0	
49.0272	271.067	0	
37.5908	253.729	0	
31.01	241.73	0	
25.9642	241.398	0	
20.0318	241.147	0	
14.6	240.866	0	
4.3911	252.054	0	
-5.59319	264.09	0	
-15.3862	280.738	0	
3.69768	314.685	0	
21.7052	289.545	0	
14.548	271.295	0	
-4.55363	253.815	0	
-14.3259	241.705	0	
-19.8346	241.984	0	
-25.8092	242.237	0	
-30.8521	242.578	0	
-39.3195	253.022	0	
-53.1226	268.56	0	
-77.068	291.51	0	
65.6714	290.804	0	
43.2366	270.888	0	
39.7067	261.506	0	
30.9061	248.138	0	
24.905	248.446	0	
18.8729	248.746	0	
10.144	252.82	0	
2.06637	261.706	0	
-2.18194	275.951	0	
-6.02947	291.406	0	
-3.31937	306.264	0	
28.1067	294.532	0	
18.0292	288.354	0	
0.0180799	274.963	0	
-8.04883	255.001	0	
-18.6884	249.613	0	
-24.7376	249.312	0	
-30.7438	249.003	0	
-40.6379	260.902	0	
-45.9584	269.062	0	
-71.3579	285.416	0	
71.5183	298.258	0	
44.504	274.232	0	
34.584	256.029	0	
29.6403	255.691	0	
23.8889	255.431	0	
18.7932	255.145	0	
6.547	263.598	0	
-2.36588	269.934	0	
-7.69453	280.643	0	
-13.2915	296.801	0	
-21.2139	341.091	0	
-2.85709	331.86	0	
6.23875	302.302	0	
3.68115	277.968	0	
-3.37567	267.205	0	
-18.612	256.025	0	
-23.725	256.307	0	
-29.4432	256.569	0	
-34.2901	256.918	0	
-46.9905	275.107	0	
-75.4274	297.862	0	
68.0298	306.744	0	
45.8958	279.629	0	
34.4116	262.293	0	