# vtk DataFile Version 4.1
vtk output
ASCII
DATASET UNSTRUCTURED_GRID

POINTS	36360	float
50	0	0	
49.9924	0.87262	0	
49.9695	1.74497	0	
49.9315	2.6168	0	
49.8782	3.48782	0	
49.8097	4.35779	0	
49.7261	5.22642	0	
49.6273	6.09347	0	
49.5134	6.95866	0	
49.3844	7.82172	0	
49.2404	8.68241	0	
49.0814	9.54045	0	
48.9074	10.3956	0	
48.7185	11.2476	0	
48.5148	12.0961	0	
48.2963	12.941	0	
48.0631	13.7819	0	
47.8152	14.6186	0	
47.5528	15.4508	0	
47.2759	16.2784	0	
46.9846	17.101	0	
46.679	17.9184	0	
46.3592	18.7303	0	
46.0252	19.5366	0	
45.6773	20.3368	0	
45.3154	21.1309	0	
44.9397	21.9186	0	
44.5503	22.6995	0	
44.1474	23.4736	0	
43.731	24.2405	0	
43.3013	25	0	
42.8584	25.7519	0	
42.4024	26.496	0	
41.9335	27.232	0	
41.4519	27.9596	0	
40.9576	28.6788	0	
40.4508	29.3893	0	
39.9318	30.0908	0	
39.4005	30.7831	0	
38.8573	31.466	0	
38.3022	32.1394	0	
37.7355	32.803	0	
37.1572	33.4565	0	
36.5677	34.0999	0	
35.967	34.7329	0	
35.3553	35.3553	0	
34.7329	35.967	0	
34.0999	36.5677	0	
33.4565	37.1572	0	
32.803	37.7355	0	
32.1394	38.3022	0	
31.466	38.8573	0	
30.7831	39.4005	0	
30.0908	39.9318	0	
29.3893	40.4508	0	
28.6788	40.9576	0	
27.9596	41.4519	0	
27.232	41.9335	0	
26.496	42.4024	0	
25.7519	42.8584	0	
25	43.3013	0	
24.2405	43.731	0	
23.4736	44.1474	0	
22.6995	44.5503	0	
21.9186	44.9397	0	
21.1309	45.3154	0	
20.3368	45.6773	0	
19.5366	46.0252	0	
18.7303	46.3592	0	
17.9184	46.679	0	
17.101	46.9846	0	
16.2784	47.2759	0	
15.4508	47.5528	0	
14.6186	47.8152	0	
13.7819	48.0631	0	
12.941	48.2963	0	
12.0961	48.5148	0	
11.2476	48.7185	0	
10.3956	48.9074	0	
9.54045	49.0814	0	
8.68241	49.2404	0	
7.82172	49.3844	0	
6.95866	49.5134	0	
6.09347	49.6273	0	
5.22642	49.7261	0	
4.35779	49.8097	0	
3.48782	49.8782	0	
2.6168	49.9315	0	
1.74497	49.9695	0	
0.87262	49.9924	0	
3.06152e-015	50	0	
-0.87262	49.9924	0	
-1.74497	49.9695	0	
-2.6168	49.9315	0	
-3.48782	49.8782	0	
-4.35779	49.8097	0	
-5.22642	49.7261	0	
-6.09347	49.6273	0	
-6.95866	49.5134	0	
-7.82172	49.3844	0	
-8.68241	49.2404	0	
-9.54045	49.0814	0	
-10.3956	48.9074	0	
-11.2476	48.7185	0	
-12.0961	48.5148	0	
-12.941	48.2963	0	
-13.7819	48.0631	0	
-14.6186	47.8152	0	
-15.4508	47.5528	0	
-16.2784	47.2759	0	
-17.101	46.9846	0	
-17.9184	46.679	0	
-18.7303	46.3592	0	
-19.5366	46.0252	0	
-20.3368	45.6773	0	
-21.1309	45.3154	0	
-21.9186	44.9397	0	
-22.6995	44.5503	0	
-23.4736	44.1474	0	
-24.2405	43.731	0	
-25	43.3013	0	
-25.7519	42.8584	0	
-26.496	42.4024	0	
-27.232	41.9335	0	
-27.9596	41.4519	0	
-28.6788	40.9576	0	
-29.3893	40.4508	0	
-30.0908	39.9318	0	
-30.7831	39.4005	0	
-31.466	38.8573	0	
-32.1394	38.3022	0	
-32.803	37.7355	0	
-33.4565	37.1572	0	
-34.0999	36.5677	0	
-34.7329	35.967	0	
-35.3553	35.3553	0	
-35.967	34.7329	0	
-36.5677	34.0999	0	
-37.1572	33.4565	0	
-37.7355	32.803	0	
-38.3022	32.1394	0	
-38.8573	31.466	0	
-39.4005	30.7831	0	
-39.9318	30.0908	0	
-40.4508	29.3893	0	
-40.9576	28.6788	0	
-41.4519	27.9596	0	
-41.9335	27.232	0	
-42.4024	26.496	0	
-42.8584	25.7519	0	
-43.3013	25	0	
-43.731	24.2405	0	
-44.1474	23.4736	0	
-44.5503	22.6995	0	
-44.9397	21.9186	0	
-45.3154	21.1309	0	
-45.6773	20.3368	0	
-46.0252	19.5366	0	
-46.3592	18.7303	0	
-46.679	17.9184	0	
-46.9846	17.101	0	
-47.2759	16.2784	0	
-47.5528	15.4508	0	
-47.8152	14.6186	0	
-48.0631	13.7819	0	
-48.2963	12.941	0	
-48.5148	12.0961	0	
-48.7185	11.2476	0	
-48.9074	10.3956	0	
-49.0814	9.54045	0	
-49.2404	8.68241	0	
-49.3844	7.82172	0	
-49.5134	6.95866	0	
-49.6273	6.09347	0	
-49.7261	5.22642	0	
-49.8097	4.35779	0	
-49.8782	3.48782	0	
-49.9315	2.6168	0	
-49.9695	1.74497	0	
-49.9924	0.87262	0	
-50	6.12303e-015	0	
-49.9924	-0.87262	0	
-49.9695	-1.74497	0	
-49.9315	-2.6168	0	
-49.8782	-3.48782	0	
-49.8097	-4.35779	0	
-49.7261	-5.22642	0	
-49.6273	-6.09347	0	
-49.5134	-6.95866	0	
-49.3844	-7.82172	0	
-49.2404	-8.68241	0	
-49.0814	-9.54045	0	
-48.9074	-10.3956	0	
-48.7185	-11.2476	0	
-48.5148	-12.0961	0	
-48.2963	-12.941	0	
-48.0631	-13.7819	0	
-47.8152	-14.6186	0	
-47.5528	-15.4508	0	
-47.2759	-16.2784	0	
-46.9846	-17.101	0	
-46.679	-17.9184	0	
-46.3592	-18.7303	0	
-46.0252	-19.5366	0	
-45.6773	-20.3368	0	
-45.3154	-21.1309	0	
-44.9397	-21.9186	0	
-44.5503	-22.6995	0	
-44.1474	-23.4736	0	
-43.731	-24.2405	0	
-43.3013	-25	0	
-42.8584	-25.7519	0	
-42.4024	-26.496	0	
-41.9335	-27.232	0	
-41.4519	-27.9596	0	
-40.9576	-28.6788	0	
-40.4508	-29.3893	0	
-39.9318	-30.0908	0	
-39.4005	-30.7831	0	
-38.8573	-31.466	0	
-38.3022	-32.1394	0	
-37.7355	-32.803	0	
-37.1572	-33.4565	0	
-36.5677	-34.0999	0	
-35.967	-34.7329	0	
-35.3553	-35.3553	0	
-34.7329	-35.967	0	
-34.0999	-36.5677	0	
-33.4565	-37.1572	0	
-32.803	-37.7355	0	
-32.1394	-38.3022	0	
-31.466	-38.8573	0	
-30.7831	-39.4005	0	
-30.0908	-39.9318	0	
-29.3893	-40.4508	0	
-28.6788	-40.9576	0	
-27.9596	-41.4519	0	
-27.232	-41.9335	0	
-26.496	-42.4024	0	
-25.7519	-42.8584	0	
-25	-43.3013	0	
-24.2405	-43.731	0	
-23.4736	-44.1474	0	
-22.6995	-44.5503	0	
-21.9186	-44.9397	0	
-21.1309	-45.3154	0	
-20.3368	-45.6773	0	
-19.5366	-46.0252	0	
-18.7303	-46.3592	0	
-17.9184	-46.679	0	
-17.101	-46.9846	0	
-16.2784	-47.2759	0	
-15.4508	-47.5528	0	
-14.6186	-47.8152	0	
-13.7819	-48.0631	0	
-12.941	-48.2963	0	
-12.0961	-48.5148	0	
-11.2476	-48.7185	0	
-10.3956	-48.9074	0	
-9.54045	-49.0814	0	
-8.68241	-49.2404	0	
-7.82172	-49.3844	0	
-6.95866	-49.5134	0	
-6.09347	-49.6273	0	
-5.22642	-49.7261	0	
-4.35779	-49.8097	0	
-3.48782	-49.8782	0	
-2.6168	-49.9315	0	
-1.74497	-49.9695	0	
-0.87262	-49.9924	0	
-9.18455e-015	-50	0	
0.87262	-49.9924	0	
1.74497	-49.9695	0	
2.6168	-49.9315	0	
3.48782	-49.8782	0	
4.35779	-49.8097	0	
5.22642	-49.7261	0	
6.09347	-49.6273	0	
6.95866	-49.5134	0	
7.82172	-49.3844	0	
8.68241	-49.2404	0	
9.54045	-49.0814	0	
10.3956	-48.9074	0	
11.2476	-48.7185	0	
12.0961	-48.5148	0	
12.941	-48.2963	0	
13.7819	-48.0631	0	
14.6186	-47.8152	0	
15.4508	-47.5528	0	
16.2784	-47.2759	0	
17.101	-46.9846	0	
17.9184	-46.679	0	
18.7303	-46.3592	0	
19.5366	-46.0252	0	
20.3368	-45.6773	0	
21.1309	-45.3154	0	
21.9186	-44.9397	0	
22.6995	-44.5503	0	
23.4736	-44.1474	0	
24.2405	-43.731	0	
25	-43.3013	0	
25.7519	-42.8584	0	
26.496	-42.4024	0	
27.232	-41.9335	0	
27.9596	-41.4519	0	
28.6788	-40.9576	0	
29.3893	-40.4508	0	
30.0908	-39.9318	0	
30.7831	-39.4005	0	
31.466	-38.8573	0	
32.1394	-38.3022	0	
32.803	-37.7355	0	
33.4565	-37.1572	0	
34.0999	-36.5677	0	
34.7329	-35.967	0	
35.3553	-35.3553	0	
35.967	-34.7329	0	
36.5677	-34.0999	0	
37.1572	-33.4565	0	
37.7355	-32.803	0	
38.3022	-32.1394	0	
38.8573	-31.466	0	
39.4005	-30.7831	0	
39.9318	-30.0908	0	
40.4508	-29.3893	0	
40.9576	-28.6788	0	
41.4519	-27.9596	0	
41.9335	-27.232	0	
42.4024	-26.496	0	
42.8584	-25.7519	0	
43.3013	-25	0	
43.731	-24.2405	0	
44.1474	-23.4736	0	
44.5503	-22.6995	0	
44.9397	-21.9186	0	
45.3154	-21.1309	0	
45.6773	-20.3368	0	
46.0252	-19.5366	0	
46.3592	-18.7303	0	
46.679	-17.9184	0	
46.9846	-17.101	0	
47.2759	-16.2784	0	
47.5528	-15.4508	0	
47.8152	-14.6186	0	
48.0631	-13.7819	0	
48.2963	-12.941	0	
48.5148	-12.0961	0	
48.7185	-11.2476	0	
48.9074	-10.3956	0	
49.0814	-9.54045	0	
49.2404	-8.68241	0	
49.3844	-7.82172	0	
49.5134	-6.95866	0	
49.6273	-6.09347	0	
49.7261	-5.22642	0	
49.8097	-4.35779	0	
49.8782	-3.48782	0	
49.9315	-2.6168	0	
49.9695	-1.74497	0	
49.9924	-0.87262	0	
51	0	0	
50.9922	0.890073	0	
50.9689	1.77987	0	
50.9301	2.66913	0	
50.8758	3.55758	0	
50.8059	4.44494	0	
50.7206	5.33095	0	
50.6199	6.21534	0	
50.5037	7.09783	0	
50.3721	7.97816	0	
50.2252	8.85606	0	
50.063	9.73126	0	
49.8855	10.6035	0	
49.6929	11.4725	0	
49.4851	12.338	0	
49.2622	13.1998	0	
49.0243	14.0575	0	
48.7715	14.911	0	
48.5039	15.7599	0	
48.2214	16.604	0	
47.9243	17.443	0	
47.6126	18.2768	0	
47.2864	19.1049	0	
46.9457	19.9273	0	
46.5908	20.7436	0	
46.2217	21.5535	0	
45.8385	22.3569	0	
45.4413	23.1535	0	
45.0303	23.943	0	
44.6056	24.7253	0	
44.1673	25.5	0	
43.7155	26.2669	0	
43.2505	27.0259	0	
42.7722	27.7766	0	
42.2809	28.5188	0	
41.7768	29.2524	0	
41.2599	29.977	0	
40.7304	30.6926	0	
40.1885	31.3987	0	
39.6344	32.0953	0	
39.0683	32.7822	0	
38.4902	33.459	0	
37.9004	34.1257	0	
37.299	34.7819	0	
36.6863	35.4276	0	
36.0624	36.0624	0	
35.4276	36.6863	0	
34.7819	37.299	0	
34.1257	37.9004	0	
33.459	38.4902	0	
32.7822	39.0683	0	
32.0953	39.6344	0	
31.3987	40.1885	0	
30.6926	40.7304	0	
29.977	41.2599	0	
29.2524	41.7768	0	
28.5188	42.2809	0	
27.7766	42.7722	0	
27.0259	43.2505	0	
26.2669	43.7155	0	
25.5	44.1673	0	
24.7253	44.6056	0	
23.943	45.0303	0	
23.1535	45.4413	0	
22.3569	45.8385	0	
21.5535	46.2217	0	
20.7436	46.5908	0	
19.9273	46.9457	0	
19.1049	47.2864	0	
18.2768	47.6126	0	
17.443	47.9243	0	
16.604	48.2214	0	
15.7599	48.5039	0	
14.911	48.7715	0	
14.0575	49.0243	0	
13.1998	49.2622	0	
12.338	49.4851	0	
11.4725	49.6929	0	
10.6035	49.8855	0	
9.73126	50.063	0	
8.85606	50.2252	0	
7.97816	50.3721	0	
7.09783	50.5037	0	
6.21534	50.6199	0	
5.33095	50.7206	0	
4.44494	50.8059	0	
3.55758	50.8758	0	
2.66913	50.9301	0	
1.77987	50.9689	0	
0.890073	50.9922	0	
3.12275e-015	51	0	
-0.890073	50.9922	0	
-1.77987	50.9689	0	
-2.66913	50.9301	0	
-3.55758	50.8758	0	
-4.44494	50.8059	0	
-5.33095	50.7206	0	
-6.21534	50.6199	0	
-7.09783	50.5037	0	
-7.97816	50.3721	0	
-8.85606	50.2252	0	
-9.73126	50.063	0	
-10.6035	49.8855	0	
-11.4725	49.6929	0	
-12.338	49.4851	0	
-13.1998	49.2622	0	
-14.0575	49.0243	0	
-14.911	48.7715	0	
-15.7599	48.5039	0	
-16.604	48.2214	0	
-17.443	47.9243	0	
-18.2768	47.6126	0	
-19.1049	47.2864	0	
-19.9273	46.9457	0	
-20.7436	46.5908	0	
-21.5535	46.2217	0	
-22.3569	45.8385	0	
-23.1535	45.4413	0	
-23.943	45.0303	0	
-24.7253	44.6056	0	
-25.5	44.1673	0	
-26.2669	43.7155	0	
-27.0259	43.2505	0	
-27.7766	42.7722	0	
-28.5188	42.2809	0	
-29.2524	41.7768	0	
-29.977	41.2599	0	
-30.6926	40.7304	0	
-31.3987	40.1885	0	
-32.0953	39.6344	0	
-32.7822	39.0683	0	
-33.459	38.4902	0	
-34.1257	37.9004	0	
-34.7819	37.299	0	
-35.4276	36.6863	0	
-36.0624	36.0624	0	
-36.6863	35.4276	0	
-37.299	34.7819	0	
-37.9004	34.1257	0	
-38.4902	33.459	0	
-39.0683	32.7822	0	
-39.6344	32.0953	0	
-40.1885	31.3987	0	
-40.7304	30.6926	0	
-41.2599	29.977	0	
-41.7768	29.2524	0	
-42.2809	28.5188	0	
-42.7722	27.7766	0	
-43.2505	27.0259	0	
[...]
POINT_DATA	36360
VECTORS d float
5.50459e-025	4.17828e-017	0	
8.09787e-019	4.16904e-017	0	
1.52758e-018	4.14202e-017	0	
2.07081e-018	4.09927e-017	0	
2.37399e-018	4.04379e-017	0	
2.39357e-018	3.97918e-017	0	
2.10927e-018	3.9091e-017	0	
1.52242e-018	3.8369e-017	0	
6.51928e-019	3.7653e-017	0	
-4.70834e-019	3.69632e-017	0	
-1.80735e-018	3.63121e-017	0	
-3.31662e-018	3.57063e-017	0	
-4.95865e-018	3.51477e-017	0	
-6.69671e-018	3.46359e-017	0	
-8.49819e-018	3.41704e-017	0	
-1.03345e-017	3.37522e-017	0	
-1.21797e-017	3.33851e-017	0	
-1.40095e-017	3.3077e-017	0	
-1.57988e-017	3.28393e-017	0	
-1.75205e-017	3.26867e-017	0	
-1.91439e-017	3.26355e-017	0	
-2.06348e-017	3.27016e-017	0	
-2.19559e-017	3.28973e-017	0	
-2.30687e-017	3.32284e-017	0	
-2.39372e-017	3.36914e-017	0	
-2.45317e-017	3.42704e-017	0	
-2.48344e-017	3.49365e-017	0	
-2.48437e-017	3.56483e-017	0	
-2.45779e-017	3.63544e-017	0	
-2.40765e-017	3.69984e-017	0	
-2.33984e-017	3.7525e-017	0	
-2.26171e-017	3.78859e-017	0	
-2.18135e-017	3.80456e-017	0	
-2.10673e-017	3.79841e-017	0	
-2.04491e-017	3.76979e-017	0	
-2.00139e-017	3.71985e-017	0	
-1.97977e-017	3.65082e-017	0	
-1.98167e-017	3.56567e-017	0	
-2.00695e-017	3.46759e-017	0	
-2.05404e-017	3.35971e-017	0	
-2.12041e-017	3.24483e-017	0	
-2.20302e-017	3.12532e-017	0	
-2.29866e-017	3.00311e-017	0	
-2.40433e-017	2.87979e-017	0	
-2.51735e-017	2.75678e-017	0	
-2.63545e-017	2.63545e-017	0	
-2.75678e-017	2.51735e-017	0	
-2.87979e-017	2.40433e-017	0	
-3.0031e-017	2.29866e-017	0	
-3.12531e-017	2.20302e-017	0	
-3.24483e-017	2.12041e-017	0	
-3.35971e-017	2.05404e-017	0	
-3.46759e-017	2.00695e-017	0	
-3.56567e-017	1.98167e-017	0	
-3.65082e-017	1.97977e-017	0	
-3.71985e-017	2.00139e-017	0	
-3.76979e-017	2.04491e-017	0	
-3.79841e-017	2.10673e-017	0	
-3.80456e-017	2.18135e-017	0	
-3.78859e-017	2.26171e-017	0	
-3.7525e-017	2.33984e-017	0	
-3.69984e-017	2.40765e-017	0	
-3.63543e-017	2.45779e-017	0	
-3.56483e-017	2.48437e-017	0	
-3.49365e-017	2.48344e-017	0	
-3.42704e-017	2.45317e-017	0	
-3.36914e-017	2.39372e-017	0	
-3.32284e-017	2.30687e-017	0	
-3.28973e-017	2.19559e-017	0	
-3.27016e-017	2.06348e-017	0	
-3.26355e-017	1.91439e-017	0	
-3.26867e-017	1.75205e-017	0	
-3.28393e-017	1.57988e-017	0	
-3.3077e-017	1.40095e-017	0	
-3.33851e-017	1.21797e-017	0	
-3.37522e-017	1.03344e-017	0	
-3.41704e-017	8.49818e-018	0	
-3.46359e-017	6.6967e-018	0	
-3.51477e-017	4.95864e-018	0	
-3.57063e-017	3.31661e-018	0	
-3.63121e-017	1.80735e-018	0	
-3.69632e-017	4.70828e-019	0	
-3.7653e-017	-6.51933e-019	0	
-3.8369e-017	-1.52242e-018	0	
-3.90911e-017	-2.10927e-018	0	
-3.97918e-017	-2.39357e-018	0	
-4.04379e-017	-2.37399e-018	0	
-4.09927e-017	-2.07081e-018	0	
-4.14202e-017	-1.52758e-018	0	
-4.16904e-017	-8.09786e-019	0	
-4.17828e-017	4.63827e-026	0	
-4.16904e-017	8.09786e-019	0	
-4.14202e-017	1.52758e-018	0	
-4.09927e-017	2.07081e-018	0	
-4.04379e-017	2.37399e-018	0	
-3.97918e-017	2.39357e-018	0	
-3.90911e-017	2.10927e-018	0	
-3.8369e-017	1.52242e-018	0	
-3.7653e-017	6.51933e-019	0	
-3.69632e-017	-4.70828e-019	0	
-3.63121e-017	-1.80735e-018	0	
-3.57063e-017	-3.31661e-018	0	
-3.51477e-017	-4.95864e-018	0	
-3.46359e-017	-6.6967e-018	0	
-3.41704e-017	-8.49818e-018	0	
-3.37522e-017	-1.03344e-017	0	
-3.33851e-017	-1.21797e-017	0	
-3.3077e-017	-1.40095e-017	0	
-3.28393e-017	-1.57988e-017	0	
-3.26867e-017	-1.75205e-017	0	
-3.26355e-017	-1.91439e-017	0	
-3.27016e-017	-2.06348e-017	0	
-3.28973e-017	-2.19559e-017	0	
-3.32284e-017	-2.30687e-017	0	
-3.36914e-017	-2.39372e-017	0	
-3.42704e-017	-2.45317e-017	0	
-3.49365e-017	-2.48344e-017	0	
-3.56483e-017	-2.48437e-017	0	
-3.63543e-017	-2.45779e-017	0	
-3.69984e-017	-2.40765e-017	0	
-3.7525e-017	-2.33984e-017	0	
-3.78859e-017	-2.26171e-017	0	
-3.80456e-017	-2.18135e-017	0	
-3.79841e-017	-2.10673e-017	0	
-3.76979e-017	-2.04491e-017	0	
-3.71985e-017	-2.00139e-017	0	
-3.65082e-017	-1.97977e-017	0	
-3.56567e-017	-1.98167e-017	0	
-3.46759e-017	-2.00695e-017	0	
-3.35971e-017	-2.05404e-017	0	
-3.24483e-017	-2.12041e-017	0	
-3.12531e-017	-2.20302e-017	0	
-3.0031e-017	-2.29866e-017	0	
-2.87979e-017	-2.40433e-017	0	
-2.75678e-017	-2.51735e-017	0	
-2.63545e-017	-2.63545e-017	0	
-2.51735e-017	-2.75678e-017	0	
-2.40433e-017	-2.87979e-017	0	
-2.29866e-017	-3.0031e-017	0	
-2.20302e-017	-3.12532e-017	0	
-2.12041e-017	-3.24483e-017	0	
-2.05404e-017	-3.35971e-017	0	
-2.00695e-017	-3.46759e-017	0	
-1.98167e-017	-3.56567e-017	0	
-1.97977e-017	-3.65082e-017	0	
-2.00139e-017	-3.71985e-017	0	
-2.04491e-017	-3.76979e-017	0	
-2.10673e-017	-3.79841e-017	0	
-2.18135e-017	-3.80456e-017	0	
-2.26171e-017	-3.78859e-017	0	
-2.33984e-017	-3.7525e-017	0	
-2.40765e-017	-3.69984e-017	0	
-2.45779e-017	-3.63543e-017	0	
-2.48437e-017	-3.56483e-017	0	
-2.48344e-017	-3.49365e-017	0	
-2.45317e-017	-3.42704e-017	0	
-2.39372e-017	-3.36914e-017	0	
-2.30687e-017	-3.32284e-017	0	
-2.19559e-017	-3.28973e-017	0	
-2.06348e-017	-3.27016e-017	0	
-1.91439e-017	-3.26355e-017	0	
-1.75205e-017	-3.26867e-017	0	
-1.57988e-017	-3.28393e-017	0	
-1.40095e-017	-3.3077e-017	0	
-1.21797e-017	-3.33851e-017	0	
-1.03344e-017	-3.37522e-017	0	
-8.49819e-018	-3.41704e-017	0	
-6.6967e-018	-3.46359e-017	0	
-4.95865e-018	-3.51477e-017	0	
-3.31662e-018	-3.57063e-017	0	
-1.80735e-018	-3.63121e-017	0	
-4.70834e-019	-3.69632e-017	0	
6.51928e-019	-3.7653e-017	0	
1.52242e-018	-3.8369e-017	0	
2.10927e-018	-3.90911e-017	0	
2.39357e-018	-3.97918e-017	0	
2.37399e-018	-4.04379e-017	0	
2.07081e-018	-4.09927e-017	0	
1.52758e-018	-4.14202e-017	0	
8.09786e-019	-4.16904e-017	0	
2.50207e-025	-4.17828e-017	0	
-8.09786e-019	-4.16904e-017	0	
-1.52758e-018	-4.14202e-017	0	
-2.07081e-018	-4.09927e-017	0	
-2.37399e-018	-4.04379e-017	0	
-2.39357e-018	-3.97918e-017	0	
-2.10927e-018	-3.90911e-017	0	
-1.52242e-018	-3.8369e-017	0	
-6.51927e-019	-3.7653e-017	0	
4.70834e-019	-3.69632e-017	0	
1.80735e-018	-3.63121e-017	0	
3.31662e-018	-3.57063e-017	0	
4.95865e-018	-3.51477e-017	0	
6.6967e-018	-3.46359e-017	0	
8.49819e-018	-3.41704e-017	0	
1.03344e-017	-3.37522e-017	0	
1.21797e-017	-3.33851e-017	0	
1.40095e-017	-3.3077e-017	0	
1.57988e-017	-3.28393e-017	0	
1.75205e-017	-3.26867e-017	0	
1.91439e-017	-3.26355e-017	0	
2.06348e-017	-3.27016e-017	0	
2.19559e-017	-3.28973e-017	0	
2.30687e-017	-3.32284e-017	0	
2.39372e-017	-3.36914e-017	0	
2.45317e-017	-3.42704e-017	0	
2.48344e-017	-3.49365e-017	0	
2.48437e-017	-3.56483e-017	0	
2.45779e-017	-3.63543e-017	0	
2.40765e-017	-3.69984e-017	0	
2.33984e-017	-3.7525e-017	0	
2.26171e-017	-3.78859e-017	0	
2.18135e-017	-3.80456e-017	0	
2.10673e-017	-3.79841e-017	0	
2.04491e-017	-3.76979e-017	0	
2.00139e-017	-3.71985e-017	0	
1.97977e-017	-3.65082e-017	0	
1.98167e-017	-3.56567e-017	0	
2.00695e-017	-3.46759e-017	0	
2.05404e-017	-3.35971e-017	0	
2.12041e-017	-3.24483e-017	0	
2.20302e-017	-3.12531e-017	0	
2.29866e-017	-3.0031e-017	0	
2.40433e-017	-2.87979e-017	0	
2.51735e-017	-2.75678e-017	0	
2.63545e-017	-2.63545e-017	0	
2.75678e-017	-2.51735e-017	0	
2.87979e-017	-2.40433e-017	0	
3.0031e-017	-2.29866e-017	0	
3.12531e-017	-2.20302e-017	0	
3.24483e-017	-2.12041e-017	0	
3.35971e-017	-2.05404e-017	0	
3.46759e-017	-2.00695e-017	0	
3.56567e-017	-1.98167e-017	0	
3.65082e-017	-1.97977e-017	0	
3.71985e-017	-2.00139e-017	0	
3.76979e-017	-2.04491e-017	0	
3.79841e-017	-2.10673e-017	0	
3.80456e-017	-2.18135e-017	0	
3.78859e-017	-2.26171e-017	0	
3.7525e-017	-2.33984e-017	0	
3.69984e-017	-2.40765e-017	0	
3.63543e-017	-2.45779e-017	0	
3.56483e-017	-2.48437e-017	0	
3.49365e-017	-2.48344e-017	0	
3.42704e-017	-2.45317e-017	0	
3.36914e-017	-2.39372e-017	0	
3.32284e-017	-2.30687e-017	0	
3.28973e-017	-2.19559e-017	0	
3.27016e-017	-2.06348e-017	0	
3.26355e-017	-1.91439e-017	0	
3.26867e-017	-1.75205e-017	0	
3.28393e-017	-1.57988e-017	0	
3.3077e-017	-1.40095e-017	0	
3.33851e-017	-1.21797e-017	0	
3.37522e-017	-1.03344e-017	0	
3.41704e-017	-8.49818e-018	0	
3.46359e-017	-6.6967e-018	0	
3.51477e-017	-4.95864e-018	0	
3.57063e-017	-3.31661e-018	0	
3.63121e-017	-1.80735e-018	0	
3.69632e-017	-4.70831e-019	0	
3.7653e-017	6.5193e-019	0	
3.8369e-017	1.52242e-018	0	
3.90911e-017	2.10927e-018	0	
3.97918e-017	2.39357e-018	0	
4.04379e-017	2.37399e-018	0	
4.09927e-017	2.07081e-018	0	
4.14202e-017	1.52758e-018	0	
4.16904e-017	8.09786e-019	0	
4.17828e-017	-5.49798e-025	0	
4.16904e-017	-8.09787e-019	0	
4.14202e-017	-1.52758e-018	0	
4.09927e-017	-2.07081e-018	0	
4.04379e-017	-2.37399e-018	0	
3.97918e-017	-2.39357e-018	0	
3.90911e-017	-2.10927e-018	0	
3.8369e-017	-1.52242e-018	0	
3.7653e-017	-6.51931e-019	0	
3.69632e-017	4.7083e-019	0	
3.63121e-017	1.80735e-018	0	
3.57063e-017	3.31661e-018	0	
3.51477e-017	4.95865e-018	0	
3.46359e-017	6.6967e-018	0	
3.41704e-017	8.49819e-018	0	
3.37522e-017	1.03344e-017	0	
3.33851e-017	1.21797e-017	0	
3.3077e-017	1.40095e-017	0	
3.28393e-017	1.57988e-017	0	
3.26867e-017	1.75205e-017	0	
3.26355e-017	1.91439e-017	0	
3.27016e-017	2.06348e-017	0	
3.28973e-017	2.19559e-017	0	
3.32284e-017	2.30687e-017	0	
3.36914e-017	2.39372e-017	0	
3.42704e-017	2.45317e-017	0	
3.49365e-017	2.48344e-017	0	
3.56483e-017	2.48437e-017	0	
3.63543e-017	2.45779e-017	0	
3.69984e-017	2.40765e-017	0	
3.7525e-017	2.33984e-017	0	
3.78859e-017	2.26171e-017	0	
3.80456e-017	2.18135e-017	0	
3.79841e-017	2.10673e-017	0	
3.76979e-017	2.04491e-017	0	
3.71985e-017	2.00139e-017	0	
3.65082e-017	1.97977e-017	0	
3.56567e-017	1.98167e-017	0	
3.46759e-017	2.00695e-017	0	
3.35971e-017	2.05404e-017	0	
3.24483e-017	2.12041e-017	0	
3.12532e-017	2.20302e-017	0	
3.0031e-017	2.29866e-017	0	
2.87979e-017	2.40433e-017	0	
2.75678e-017	2.51735e-017	0	
2.63545e-017	2.63545e-017	0	
2.51735e-017	2.75678e-017	0	
2.40433e-017	2.87979e-017	0	
2.29866e-017	3.0031e-017	0	
2.20302e-017	3.12531e-017	0	
2.12041e-017	3.24483e-017	0	
2.05404e-017	3.35971e-017	0	
2.00695e-017	3.46759e-017	0	
1.98167e-017	3.56567e-017	0	
1.97977e-017	3.65082e-017	0	
2.00139e-017	3.71985e-017	0	
2.04491e-017	3.76979e-017	0	
2.10673e-017	3.79841e-017	0	
2.18135e-017	3.80456e-017	0	
2.26171e-017	3.78859e-017	0	
2.33984e-017	3.7525e-017	0	
2.40765e-017	3.69984e-017	0	
2.45779e-017	3.63543e-017	0	
2.48437e-017	3.56483e-017	0	
2.48344e-017	3.49365e-017	0	
2.45317e-017	3.42704e-017	0	
2.39372e-017	3.36914e-017	0	
2.30687e-017	3.32284e-017	0	
2.19559e-017	3.28973e-017	0	
2.06348e-017	3.27016e-017	0	
1.91439e-017	3.26355e-017	0	
1.75205e-017	3.26867e-017	0	
1.57988e-017	3.28393e-017	0	
1.40095e-017	3.3077e-017	0	
1.21797e-017	3.33851e-017	0	
1.03344e-017	3.37522e-017	0	
8.49819e-018	3.41704e-017	0	
6.6967e-018	3.46359e-017	0	
4.95865e-018	3.51477e-017	0	
3.31662e-018	3.57063e-017	0	
1.80735e-018	3.63121e-017	0	
4.70834e-019	3.69632e-017	0	
-6.51928e-019	3.7653e-017	0	
-1.52242e-018	3.8369e-017	0	
-2.10927e-018	3.90911e-017	0	
-2.39357e-018	3.97918e-017	0	
-2.37399e-018	4.04379e-017	0	
-2.07081e-018	4.09927e-017	0	
-1.52758e-018	4.14202e-017	0	
-8.09786e-019	4.16904e-017	0	
6.31802e-015	1.53183e-006	0	
-8.52456e-009	1.52832e-006	0	
-1.79117e-008	1.51807e-006	0	
-2.89297e-008	1.50189e-006	0	
-4.21771e-008	1.48096e-006	0	
-5.804e-008	1.45673e-006	0	
-7.66839e-008	1.43065e-006	0	
-9.80782e-008	1.40409e-006	0	
-1.2204e-007	1.37819e-006	0	
-1.48287e-007	1.3538e-006	0	
-1.7649e-007	1.33148e-006	0	
-2.06316e-007	1.31152e-006	0	
-2.37462e-007	1.29404e-006	0	
-2.69674e-007	1.27901e-006	0	
-3.02755e-007	1.26638e-006	0	
-3.3656e-007	1.25608e-006	0	
-3.70988e-007	1.24809e-006	0	
-4.05953e-007	1.24249e-006	0	
-4.41361e-007	1.2394e-006	0	
-4.77076e-007	1.23896e-006	0	
-5.12885e-007	1.24133e-006	0	
-5.48472e-007	1.24656e-006	0	
-5.83399e-007	1.25456e-006	0	
-6.17101e-007	1.26501e-006	0	
-6.48908e-007	1.27731e-006	0	
-6.78093e-007	1.29057e-006	0	
-7.0395e-007	1.30363e-006	0	
-7.25886e-007	1.31513e-006	0	
-7.4352e-007	1.32364e-006	0	
-7.56773e-007	1.32782e-006	0	
-7.65911e-007	1.32659e-006	0	
-7.71538e-007	1.31929e-006	0	
-7.74544e-007	1.30573e-006	0	
-7.75994e-007	1.2862e-006	0	
-7.77005e-007	1.26146e-006	0	
-7.78625e-007	1.23253e-006	0	
-7.81733e-007	1.20063e-006	0	
-7.86985e-007	1.16693e-006	0	
-7.94788e-007	1.13252e-006	0	
-8.05324e-007	1.09828e-006	0	
-8.18587e-007	1.06484e-006	0	
-8.3444e-007	1.03265e-006	0	
-8.52673e-007	1.00194e-006	0	
-8.73058e-007	9.7282e-007	0	
-8.9539e-007	9.4534e-007	0	
-9.19515e-007	9.19516e-007	0	
-9.4534e-007	8.9539e-007	0	
-9.7282e-007	8.73058e-007	0	
-1.00194e-006	8.52673e-007	0	
-1.03265e-006	8.3444e-007	0	
-1.06484e-006	8.18587e-007	0	
-1.09828e-006	8.05324e-007	0	
-1.13252e-006	7.94788e-007	0	
-1.16693e-006	7.86984e-007	0	
-1.20063e-006	7.81733e-007	0	
-1.23253e-006	7.78625e-007	0	
-1.26146e-006	7.77005e-007	0	
-1.2862e-006	7.75994e-007	0	
-1.30573e-006	7.74544e-007	0	
-1.31929e-006	7.71538e-007	0	
-1.32659e-006	7.65911e-007	0	
-1.32782e-006	7.56773e-007	0	
-1.32364e-006	7.4352e-007	0	
-1.31513e-006	7.25885e-007	0	
-1.30363e-006	7.0395e-007	0	
-1.29057e-006	6.78093e-007	0	
-1.27731e-006	6.48907e-007	0	
-1.26501e-006	6.17101e-007	0	
-1.25456e-006	5.83399e-007	0	
-1.24656e-006	5.48472e-007	0	
-1.24133e-006	5.12885e-007	0	
-1.23896e-006	4.77075e-007	0	
-1.2394e-006	4.41361e-007	0	
-1.24249e-006	4.05953e-007	0	
-1.24809e-006	3.70988e-007	0	
-1.25608e-006	3.3656e-007	0	
-1.26638e-006	3.02754e-007	0	
-1.27901e-006	2.69674e-007	0	
-1.29404e-006	2.37462e-007	0	
-1.31152e-006	2.06316e-007	0	
-1.33148e-006	1.7649e-007	0	
-1.3538e-006	1.48287e-007	0	
-1.37819e-006	1.2204e-007	0	
-1.40409e-006	9.80781e-008	0	
-1.43065e-006	7.66839e-008	0	
-1.45673e-006	5.804e-008	0	
-1.48096e-006	4.21771e-008	0	
-1.50189e-006	2.89297e-008	0	
-1.51807e-006	1.79117e-008	0	
-1.52832e-006	8.52457e-009	0	
-1.53183e-006	7.23133e-016	0	
-1.52832e-006	-8.52457e-009	0	
-1.51807e-006	-1.79117e-008	0	
-1.50189e-006	-2.89297e-008	0	
-1.48096e-006	-4.21771e-008	0	
-1.45673e-006	-5.804e-008	0	
-1.43065e-006	-7.66839e-008	0	
-1.40409e-006	-9.80781e-008	0	
-1.37819e-006	-1.2204e-007	0	
-1.3538e-006	-1.48287e-007	0	
-1.33148e-006	-1.7649e-007	0	
-1.31152e-006	-2.06316e-007	0	
-1.29404e-006	-2.37462e-007	0	
-1.27901e-006	-2.69674e-007	0	
-1.26638e-006	-3.02754e-007	0	
-1.25608e-006	-3.3656e-007	0	
-1.24809e-006	-3.70988e-007	0	
-1.24249e-006	-4.05953e-007	0	
-1.2394e-006	-4.41361e-007	0	
-1.23896e-006	-4.77075e-007	0	
-1.24133e-006	-5.12885e-007	0	
-1.24656e-006	-5.48472e-007	0	
-1.25456e-006	-5.83399e-007	0	
-1.26501e-006	-6.17101e-007	0	
-1.27731e-006	-6.48907e-007	0	
-1.29057e-006	-6.78093e-007	0	
-1.30363e-006	-7.0395e-007	0	
-1.31513e-006	-7.25885e-007	0	
-1.32364e-006	-7.4352e-007	0	
-1.32782e-006	-7.56773e-007	0	
-1.32659e-006	-7.65911e-007	0	
-1.31929e-006	-7.71538e-007	0	
-1.30573e-006	-7.74544e-007	0	
-1.2862e-006	-7.75994e-007	0	
-1.26146e-006	-7.77005e-007	0	
-1.23253e-006	-7.78625e-007	0	
-1.20063e-006	-7.81733e-007	0	
-1.16693e-006	-7.86984e-007	0	
-1.13252e-006	-7.94788e-007	0	
-1.09828e-006	-8.05324e-007	0	
-1.06484e-006	-8.18587e-007	0	
-1.03265e-006	-8.3444e-007	0	
-1.00194e-006	-8.52673e-007	0	
-9.7282e-007	-8.73058e-007	0	
-9.4534e-007	-8.9539e-007	0	
-9.19516e-007	-9.19516e-007	0	
-8.9539e-007	-9.4534e-007	0	
-8.73058e-007	-9.7282e-007	0	
-8.52673e-007	-1.00194e-006	0	
-8.3444e-007	-1.03265e-006	0	
-8.18587e-007	-1.06484e-006	0	
-8.05324e-007	-1.09828e-006	0	
-7.94788e-007	-1.13252e-006	0	
-7.86985e-007	-1.16693e-006	0	
-7.81733e-007	-1.20063e-006	0	
-7.78625e-007	-1.23253e-006	0	
-7.77005e-007	-1.26146e-006	0	
-7.75994e-007	-1.2862e-006	0	
-7.74544e-007	-1.30573e-006	0	
-7.71538e-007	-1.31929e-006	0	
-7.65911e-007	-1.32659e-006	0	
-7.56773e-007	-1.32782e-006	0	
-7.4352e-007	-1.32364e-006	0	
-7.25885e-007	-1.31513e-006	0	
-7.0395e-007	-1.30363e-006	0	
-6.78093e-007	-1.29057e-006	0	
-6.48907e-007	-1.27731e-006	0	
-6.17101e-007	-1.26501e-006	0	
-5.83399e-007	-1.25456e-006	0	
-5.48472e-007	-1.24656e-006	0	
-5.12885e-007	-1.24133e-006	0	
-4.77076e-007	-1.23896e-006	0	
-4.41361e-007	-1.2394e-006	0	
-4.05953e-007	-1.24249e-006	0	
-3.70988e-007	-1.24809e-006	0	
-3.3656e-007	-1.25608e-006	0	
-3.02755e-007	-1.26638e-006	0	
-2.69674e-007	-1.27901e-006	0	
-2.37462e-007	-1.29404e-006	0	
-2.06316e-007	-1.31152e-006	0	
-1.7649e-007	-1.33148e-006	0	
-1.48287e-007	-1.3538e-006	0	
-1.2204e-007	-1.37819e-006	0	
-9.80782e-008	-1.40409e-006	0	
-7.66839e-008	-1.43065e-006	0	
-5.804e-008	-1.45673e-006	0	
-4.21771e-008	-1.48096e-006	0	
-2.89297e-008	-1.50189e-006	0	
-1.79117e-008	-1.51807e-006	0	
-8.52457e-009	-1.52832e-006	0	
2.88086e-015	-1.53183e-006	0	
8.52457e-009	-1.52832e-006	0	
1.79117e-008	-1.51807e-006	0	
2.89297e-008	-1.50189e-006	0	
4.21771e-008	-1.48096e-006	0	
5.804e-008	-1.45673e-006	0	
7.66839e-008	-1.43065e-006	0	
9.80782e-008	-1.40409e-006	0	
1.2204e-007	-1.37819e-006	0	
1.48287e-007	-1.3538e-006	0	
1.7649e-007	-1.33148e-006	0	
2.06316e-007	-1.31152e-006	0	
2.37462e-007	-1.29404e-006	0	
2.69674e-007	-1.27901e-006	0	
3.02755e-007	-1.26638e-006	0	
3.3656e-007	-1.25608e-006	0	
3.70988e-007	-1.24809e-006	0	
4.05953e-007	-1.24249e-006	0	
4.41361e-007	-1.2394e-006	0	
4.77076e-007	-1.23896e-006	0	
5.12885e-007	-1.24133e-006	0	
5.48472e-007	-1.24656e-006	0	
5.83399e-007	-1.25456e-006	0	
6.17101e-007	-1.26501e-006	0	
6.48907e-007	-1.27731e-006	0	
6.78093e-007	-1.29057e-006	0	
7.0395e-007	-1.30363e-006	0	
7.25885e-007	-1.31513e-006	0	
7.4352e-007	-1.32364e-006	0	
7.56773e-007	-1.32782e-006	0	
7.65911e-007	-1.32659e-006	0	
7.71538e-007	-1.31929e-006	0	
7.74544e-007	-1.30573e-006	0	
7.75994e-007	-1.2862e-006	0	
7.77005e-007	-1.26146e-006	0	
7.78625e-007	-1.23253e-006	0	
7.81733e-007	-1.20063e-006	0	
7.86985e-007	-1.16693e-006	0	
7.94788e-007	-1.13252e-006	0	
8.05324e-007	-1.09828e-006	0	
8.18587e-007	-1.06484e-006	0	
8.3444e-007	-1.03265e-006	0	
8.52673e-007	-1.00194e-006	0	
8.73058e-007	-9.7282e-007	0	
8.9539e-007	-9.4534e-007	0	
9.19516e-007	-9.19516e-007	0	
9.4534e-007	-8.9539e-007	0	
9.7282e-007	-8.73058e-007	0	
1.00194e-006	-8.52673e-007	0	
1.03265e-006	-8.3444e-007	0	
1.06484e-006	-8.18587e-007	0	
1.09828e-006	-8.05324e-007	0	
1.13252e-006	-7.94788e-007	0	
1.16693e-006	-7.86985e-007	0	
1.20063e-006	-7.81733e-007	0	
1.23253e-006	-7.78625e-007	0	
1.26146e-006	-7.77005e-007	0	
1.2862e-006	-7.75994e-007	0	
1.30573e-006	-7.74544e-007	0	
1.31929e-006	-7.71538e-007	0	
1.32659e-006	-7.65911e-007	0	
1.32782e-006	-7.56773e-007	0	
1.32364e-006	-7.4352e-007	0	
1.31513e-006	-7.25885e-007	0	
1.30363e-006	-7.0395e-007	0	
1.29057e-006	-6.78093e-007	0	
1.27731e-006	-6.48907e-007	0	
1.26501e-006	-6.17101e-007	0	
1.25456e-006	-5.83399e-007	0	
1.24656e-006	-5.48472e-007	0	
1.24133e-006	-5.12885e-007	0	
1.23896e-006	-4.77076e-007	0	
1.2394e-006	-4.41361e-007	0	
1.24249e-006	-4.05953e-007	0	
1.24809e-006	-3.70988e-007	0	
1.25608e-006	-3.3656e-007	0	
1.26638e-006	-3.02755e-007	0	
1.27901e-006	-2.69674e-007	0	
1.29404e-006	-2.37462e-007	0	
1.31152e-006	-2.06316e-007	0	
1.33148e-006	-1.7649e-007	0	
1.3538e-006	-1.48287e-007	0	
1.37819e-006	-1.2204e-007	0	
1.40409e-006	-9.80782e-008	0	
1.43065e-006	-7.66839e-008	0	
1.45673e-006	-5.804e-008	0	
1.48096e-006	-4.21771e-008	0	
1.50189e-006	-2.89297e-008	0	
1.51807e-006	-1.79117e-008	0	
1.52832e-006	-8.52458e-009	0	
1.53183e-006	-5.93118e-015	0	
1.52832e-006	8.52456e-009	0	
1.51807e-006	1.79117e-008	0	
1.50189e-006	2.89297e-008	0	
1.48096e-006	4.21771e-008	0	
1.45673e-006	5.804e-008	0	
1.43065e-006	7.66839e-008	0	
1.40409e-006	9.80782e-008	0	
1.37819e-006	1.2204e-007	0	
1.3538e-006	1.48287e-007	0	
1.33148e-006	1.7649e-007	0	
1.31152e-006	2.06316e-007	0	
1.29404e-006	2.37462e-007	0	
1.27901e-006	2.69674e-007	0	
1.26638e-006	3.02755e-007	0	
1.25608e-006	3.3656e-007	0	
1.24809e-006	3.70988e-007	0	
1.24249e-006	4.05953e-007	0	
1.2394e-006	4.41361e-007	0	
1.23896e-006	4.77076e-007	0	
1.24133e-006	5.12885e-007	0	
1.24656e-006	5.48472e-007	0	
1.25456e-006	5.83399e-007	0	
1.26501e-006	6.17101e-007	0	
1.27731e-006	6.48907e-007	0	
1.29057e-006	6.78093e-007	0	
1.30363e-006	7.0395e-007	0	
1.31513e-006	7.25885e-007	0	
1.32364e-006	7.4352e-007	0	
1.32782e-006	7.56773e-007	0	
1.32659e-006	7.65911e-007	0	
1.31929e-006	7.71538e-007	0	
1.30573e-006	7.74544e-007	0	
1.2862e-006	7.75994e-007	0	
1.26146e-006	7.77005e-007	0	
1.23253e-006	7.78625e-007	0	
1.20063e-006	7.81733e-007	0	
1.16693e-006	7.86985e-007	0	