# vtk DataFile Version 4.1
vtk output
ASCII
DATASET UNSTRUCTURED_GRID

POINTS	2501	float
0	0	0	
0	1	0	
0	2	0	
0	3	0	
0	4	0	
0	5	0	
0	6	0	
0	7	0	
0	8	0	
0	9	0	
0	10	0	
0	11	0	
0	12	0	
0	13	0	
0	14	0	
0	15	0	
0	16	0	
0	17	0	
0	18	0	
0	19	0	
0	20	0	
0	21	0	
0	22	0	
0	23	0	
0	24	0	
0	25	0	
0	26	0	
0	27	0	
0	28	0	
0	29	0	
0	30	0	
0	31	0	
0	32	0	
0	33	0	
0	34	0	
0	35	0	
0	36	0	
0	37	0	
0	38	0	
0	39	0	
0	40	0	
1	0	0	
1	1	0	
1	2	0	
1	3	0	
1	4	0	
1	5	0	
1	6	0	
1	7	0	
1	8	0	
1	9	0	
1	10	0	
1	11	0	
1	12	0	
1	13	0	
1	14	0	
1	15	0	
1	16	0	
1	17	0	
1	18	0	
1	19	0	
1	20	0	
1	21	0	
1	22	0	
1	23	0	
1	24	0	
1	25	0	
1	26	0	
1	27	0	
1	28	0	
1	29	0	
1	30	0	
1	31	0	
1	32	0	
1	33	0	
1	34	0	
1	35	0	
1	36	0	
1	37	0	
1	38	0	
1	39	0	
1	40	0	
2	0	0	
2	1	0	
2	2	0	
2	3	0	
2	4	0	
2	5	0	
2	6	0	
2	7	0	
2	8	0	
2	9	0	
2	10	0	
2	11	0	
2	12	0	
2	13	0	
2	14	0	
2	15	0	
2	16	0	
2	17	0	
2	18	0	
2	19	0	
2	20	0	
2	21	0	
2	22	0	
2	23	0	
2	24	0	
2	25	0	
2	26	0	
2	27	0	
2	28	0	
2	29	0	
2	30	0	
2	31	0	
2	32	0	
2	33	0	
2	34	0	
2	35	0	
2	36	0	
2	37	0	
2	38	0	
2	39	0	
2	40	0	
3	0	0	
3	1	0	
3	2	0	
3	3	0	
3	4	0	
3	5	0	
3	6	0	
3	7	0	
3	8	0	
3	9	0	
3	10	0	
3	11	0	
3	12	0	
3	13	0	
3	14	0	
3	15	0	
3	16	0	
3	17	0	
3	18	0	
3	19	0	
3	20	0	
3	21	0	
3	22	0	
3	23	0	
3	24	0	
3	25	0	
3	26	0	
3	27	0	
3	28	0	
3	29	0	
3	30	0	
3	31	0	
3	32	0	
3	33	0	
3	34	0	
3	35	0	
3	36	0	
3	37	0	
3	38	0	
3	39	0	
3	40	0	
4	0	0	
4	1	0	
4	2	0	
4	3	0	
4	4	0	
4	5	0	
4	6	0	
4	7	0	
4	8	0	
4	9	0	
4	10	0	
4	11	0	
4	12	0	
4	13	0	
4	14	0	
4	15	0	
4	16	0	
4	17	0	
4	18	0	
4	19	0	
4	20	0	
4	21	0	
4	22	0	
4	23	0	
4	24	0	
4	25	0	
4	26	0	
4	27	0	
4	28	0	
4	29	0	
4	30	0	
4	31	0	
4	32	0	
4	33	0	
4	34	0	
4	35	0	
4	36	0	
4	37	0	
4	38	0	
4	39	0	
4	40	0	
5	0	0	
5	1	0	
5	2	0	
5	3	0	
5	4	0	
5	5	0	
5	6	0	
5	7	0	
5	8	0	
5	9	0	
5	10	0	
5	11	0	
5	12	0	
5	13	0	
5	14	0	
5	15	0	
5	16	0	
5	17	0	
5	18	0	
5	19	0	
5	20	0	
5	21	0	
5	22	0	
5	23	0	
5	24	0	
5	25	0	
5	26	0	
5	27	0	
5	28	0	
5	29	0	
5	30	0	
5	31	0	
5	32	0	
5	33	0	
5	34	0	
5	35	0	
5	36	0	
5	37	0	
5	38	0	
5	39	0	
5	40	0	
6	0	0	
6	1	0	
6	2	0	
6	3	0	
6	4	0	
6	5	0	
6	6	0	
6	7	0	
6	8	0	
6	9	0	
6	10	0	
6	11	0	
6	12	0	
6	13	0	
6	14	0	
6	15	0	
6	16	0	
6	17	0	
6	18	0	
6	19	0	
6	20	0	
6	21	0	
6	22	0	
6	23	0	
6	24	0	
6	25	0	
6	26	0	
6	27	0	
6	28	0	
6	29	0	
6	30	0	
6	31	0	
6	32	0	
6	33	0	
6	34	0	
6	35	0	
6	36	0	
6	37	0	
6	38	0	
6	39	0	
6	40	0	
7	0	0	
7	1	0	
7	2	0	
7	3	0	
7	4	0	
7	5	0	
7	6	0	
7	7	0	
7	8	0	
7	9	0	
7	10	0	
7	11	0	
7	12	0	
7	13	0	
7	14	0	
7	15	0	
7	16	0	
7	17	0	
7	18	0	
7	19	0	
7	20	0	
7	21	0	
7	22	0	
7	23	0	
7	24	0	
7	25	0	
7	26	0	
7	27	0	
7	28	0	
7	29	0	
7	30	0	
7	31	0	
7	32	0	
7	33	0	
7	34	0	
7	35	0	
7	36	0	
7	37	0	
7	38	0	
7	39	0	
7	40	0	
8	0	0	
8	1	0	
8	2	0	
8	3	0	
8	4	0	
8	5	0	
8	6	0	
8	7	0	
8	8	0	
8	9	0	
8	10	0	
8	11	0	
8	12	0	
8	13	0	
8	14	0	
8	15	0	
8	16	0	
8	17	0	
8	18	0	
8	19	0	
8	20	0	
8	21	0	
8	22	0	
8	23	0	
8	24	0	
8	25	0	
8	26	0	
8	27	0	
8	28	0	
8	29	0	
8	30	0	
8	31	0	
8	32	0	
8	33	0	
8	34	0	
8	35	0	
8	36	0	
8	37	0	
8	38	0	
8	39	0	
8	40	0	
9	0	0	
9	1	0	
9	2	0	
9	3	0	
9	4	0	
9	5	0	
9	6	0	
9	7	0	
9	8	0	
9	9	0	
9	10	0	
9	11	0	
9	12	0	
9	13	0	
9	14	0	
9	15	0	
9	16	0	
9	17	0	
9	18	0	
9	19	0	
9	20	0	
9	21	0	
9	22	0	
9	23	0	
9	24	0	
9	25	0	
9	26	0	
9	27	0	
9	28	0	
9	29	0	
9	30	0	
9	31	0	
9	32	0	
9	33	0	
9	34	0	
9	35	0	
9	36	0	
9	37	0	
9	38	0	
9	39	0	
9	40	0	
10	0	0	
10	1	0	
10	2	0	
10	3	0	
10	4	0	
10	5	0	
10	6	0	
10	7	0	
10	8	0	
10	9	0	
10	10	0	
10	11	0	
10	12	0	
10	13	0	
10	14	0	
10	15	0	
10	16	0	
10	17	0	
10	18	0	
10	19	0	
10	20	0	
10	21	0	
10	22	0	
10	23	0	
10	24	0	
10	25	0	
10	26	0	
10	27	0	
10	28	0	
10	29	0	
10	30	0	
10	31	0	
10	32	0	
10	33	0	
10	34	0	
10	35	0	
10	36	0	
10	37	0	
10	38	0	
10	39	0	
10	40	0	
11	0	0	
11	1	0	
11	2	0	
11	3	0	
11	4	0	
11	5	0	
11	6	0	
11	7	0	
11	8	0	
11	9	0	
11	10	0	
11	11	0	
11	12	0	
11	13	0	
11	14	0	
11	15	0	
11	16	0	
11	17	0	
11	18	0	
11	19	0	
11	20	0	
11	21	0	
11	22	0	
11	23	0	
11	24	0	
11	25	0	
11	26	0	
11	27	0	
11	28	0	
11	29	0	
11	30	0	
11	31	0	
11	32	0	
11	33	0	
11	34	0	
11	35	0	
11	36	0	
11	37	0	
11	38	0	
11	39	0	
11	40	0	
12	0	0	
12	1	0	
12	2	0	
12	3	0	
12	4	0	
12	5	0	
12	6	0	
12	7	0	
12	8	0	
12	9	0	
12	10	0	
12	11	0	
12	12	0	
12	13	0	
12	14	0	
12	15	0	
12	16	0	
12	17	0	
12	18	0	
12	19	0	
12	20	0	
12	21	0	
12	22	0	
12	23	0	
12	24	0	
12	25	0	
12	26	0	
12	27	0	
12	28	0	
12	29	0	
12	30	0	
12	31	0	
12	32	0	
12	33	0	
12	34	0	
12	35	0	
12	36	0	
12	37	0	
12	38	0	
12	39	0	
12	40	0	
13	0	0	
13	1	0	
13	2	0	
13	3	0	
13	4	0	
13	5	0	
13	6	0	
13	7	0	
13	8	0	
13	9	0	
13	10	0	
13	11	0	
13	12	0	
13	13	0	
13	14	0	
13	15	0	
13	16	0	
13	17	0	
13	18	0	
13	19	0	
13	20	0	
13	21	0	
13	22	0	
13	23	0	
13	24	0	
13	25	0	
13	26	0	
13	27	0	
13	28	0	
13	29	0	
13	30	0	
13	31	0	
13	32	0	
13	33	0	
13	34	0	
13	35	0	
13	36	0	
13	37	0	
13	38	0	
13	39	0	
13	40	0	
14	0	0	
14	1	0	
14	2	0	
14	3	0	
14	4	0	
14	5	0	
14	6	0	
14	7	0	
14	8	0	
14	9	0	
14	10	0	
14	11	0	
14	12	0	
14	13	0	
14	14	0	
14	15	0	
14	16	0	
14	17	0	
14	18	0	
14	19	0	
14	20	0	
14	21	0	
14	22	0	
14	23	0	
14	24	0	
14	25	0	
14	26	0	
14	27	0	
14	28	0	
14	29	0	
14	30	0	
14	31	0	
14	32	0	
14	33	0	
14	34	0	
14	35	0	
14	36	0	
14	37	0	
14	38	0	
14	39	0	
14	40	0	
15	0	0	
15	1	0	
15	2	0	
15	3	0	
15	4	0	
15	5	0	
15	6	0	
15	7	0	
15	8	0	
15	9	0	
15	10	0	
15	11	0	
15	12	0	
15	13	0	
15	14	0	
15	15	0	
15	16	0	
15	17	0	
15	18	0	
15	19	0	
15	20	0	
15	21	0	
15	22	0	
15	23	0	
15	24	0	
15	25	0	
15	26	0	
15	27	0	
15	28	0	
15	29	0	
15	30	0	
15	31	0	
15	32	0	
15	33	0	
15	34	0	
15	35	0	
15	36	0	
15	37	0	
15	38	0	
15	39	0	
15	40	0	
16	0	0	
16	1	0	
16	2	0	
16	3	0	
16	4	0	
16	5	0	
16	6	0	
16	7	0	
16	8	0	
16	9	0	
16	10	0	
16	11	0	
16	12	0	
16	13	0	
16	14	0	
16	15	0	
16	16	0	
16	17	0	
16	18	0	
16	19	0	
16	20	0	
16	21	0	
16	22	0	
16	23	0	
16	24	0	
16	25	0	
16	26	0	
16	27	0	
16	28	0	
16	29	0	
16	30	0	
16	31	0	
16	32	0	
16	33	0	
16	34	0	
16	35	0	
16	36	0	
16	37	0	
16	38	0	
16	39	0	
16	40	0	
17	0	0	
17	1	0	
17	2	0	
17	3	0	
17	4	0	
17	5	0	
17	6	0	
17	7	0	
17	8	0	
17	9	0	
17	10	0	
17	11	0	
17	12	0	
17	13	0	
17	14	0	
17	15	0	
17	16	0	
17	17	0	
17	18	0	
17	19	0	
17	20	0	
17	21	0	
17	22	0	
17	23	0	
17	24	0	
17	25	0	
17	26	0	
17	27	0	
17	28	0	
17	29	0	
17	30	0	
17	31	0	
17	32	0	
17	33	0	
17	34	0	
17	35	0	
17	36	0	
17	37	0	
17	38	0	
17	39	0	
17	40	0	
18	0	0	
18	1	0	
18	2	0	
18	3	0	
18	4	0	
18	5	0	
18	6	0	
18	7	0	
18	8	0	
18	9	0	
18	10	0	
18	11	0	
18	12	0	
18	13	0	
18	14	0	
18	15	0	
18	16	0	
18	17	0	
18	18	0	
18	19	0	
18	20	0	
18	21	0	
18	22	0	
18	23	0	
18	24	0	
18	25	0	
18	26	0	
18	27	0	
18	28	0	
18	29	0	
18	30	0	
18	31	0	
18	32	0	
18	33	0	
18	34	0	
18	35	0	
18	36	0	
18	37	0	
18	38	0	
18	39	0	
18	40	0	
19	0	0	
19	1	0	
19	2	0	
19	3	0	
19	4	0	
19	5	0	
19	6	0	
19	7	0	
19	8	0	
19	9	0	
19	10	0	
19	11	0	
19	12	0	
19	13	0	
19	14	0	
19	15	0	
19	16	0	
19	17	0	
19	18	0	
19	19	0	
19	20	0	
19	21	0	
19	22	0	
19	23	0	
19	24	0	
19	25	0	
19	26	0	
19	27	0	
19	28	0	
19	29	0	
19	30	0	
19	31	0	
19	32	0	
19	33	0	
19	34	0	
19	35	0	
19	36	0	
19	37	0	
19	38	0	
19	39	0	
19	40	0	
20	0	0	
20	1	0	
20	2	0	
20	3	0	
20	4	0	
20	5	0	
20	6	0	
20	7	0	
20	8	0	
20	9	0	
20	10	0	
20	11	0	
20	12	0	
20	13	0	
20	14	0	
20	15	0	
20	16	0	
20	17	0	
20	18	0	
20	19	0	
20	20	0	
20	21	0	
20	22	0	
20	23	0	
20	24	0	
20	25	0	
20	26	0	
20	27	0	
20	28	0	
20	29	0	
20	30	0	
20	31	0	
20	32	0	
20	33	0	
20	34	0	
20	35	0	
20	36	0	
20	37	0	
20	38	0	
20	39	0	
20	40	0	
21	0	0	
21	1	0	
21	2	0	
21	3	0	
21	4	0	
21	5	0	
21	6	0	
21	7	0	
21	8	0	
21	9	0	
21	10	0	
21	11	0	
21	12	0	
21	13	0	
21	14	0	
21	15	0	
21	16	0	
21	17	0	
21	18	0	
21	19	0	
21	20	0	
21	21	0	
21	22	0	
21	23	0	
21	24	0	
21	25	0	
21	26	0	
21	27	0	
21	28	0	
21	29	0	
21	30	0	
21	31	0	
21	32	0	
21	33	0	
21	34	0	
21	35	0	
21	36	0	
21	37	0	
21	38	0	
21	39	0	
21	40	0	
22	0	0	
22	1	0	
22	2	0	
22	3	0	
22	4	0	
22	5	0	
22	6	0	
22	7	0	
22	8	0	
22	9	0	
22	10	0	
22	11	0	
22	12	0	
22	13	0	
22	14	0	
22	15	0	
22	16	0	
22	17	0	
22	18	0	
22	19	0	
22	20	0	
22	21	0	
22	22	0	
22	23	0	
22	24	0	
22	25	0	
22	26	0	
22	27	0	
22	28	0	
22	29	0	
22	30	0	
22	31	0	
22	32	0	
22	33	0	
22	34	0	
22	35	0	
22	36	0	
22	37	0	
22	38	0	
22	39	0	
22	40	0	
23	0	0	
23	1	0	
23	2	0	
23	3	0	
23	4	0	
23	5	0	
23	6	0	
23	7	0	
23	8	0	
23	9	0	
23	10	0	
23	11	0	
23	12	0	
23	13	0	
23	14	0	
23	15	0	
23	16	0	
23	17	0	
23	18	0	
23	19	0	
23	20	0	
23	21	0	
23	22	0	
23	23	0	
23	24	0	
23	25	0	
23	26	0	
23	27	0	
23	28	0	
23	29	0	
23	30	0	
23	31	0	
23	32	0	
23	33	0	
23	34	0	
23	35	0	
23	36	0	
23	37	0	
23	38	0	
23	39	0	
23	40	0	
24	0	0	
24	1	0	
24	2	0	
24	3	0	
24	4	0	
24	5	0	
24	6	0	
24	7	0	
24	8	0	
24	9	0	
24	10	0	
24	11	0	
24	12	0	
24	13	0	
24	14	0	
24	15	0	
24	16	0	
24	17	0	
24	18	0	
24	19	0	
24	20	0	
24	21	0	
24	22	0	
24	23	0	
24	24	0	
24	25	0	
24	26	0	
24	27	0	
24	28	0	
24	29	0	
24	30	0	
24	31	0	
24	32	0	
24	33	0	
24	34	0	
24	35	0	
24	36	0	
24	37	0	
24	38	0	
24	39	0	
24	40	0	
25	0	0	
25	1	0	
25	2	0	
25	3	0	
25	4	0	
25	5	0	
25	6	0	
25	7	0	
25	8	0	
25	9	0	
25	10	0	
25	11	0	
25	12	0	
25	13	0	
25	14	0	
25	15	0	
25	16	0	
25	17	0	
25	18	0	
25	19	0	
25	20	0	
25	21	0	
25	22	0	
25	23	0	
25	24	0	
25	25	0	
25	26	0	
25	27	0	
25	28	0	
25	29	0	
25	30	0	
25	31	0	
25	32	0	
25	33	0	
25	34	0	
25	35	0	
25	36	0	
25	37	0	
25	38	0	
25	39	0	
25	40	0	
26	0	0	
26	1	0	
26	2	0	
26	3	0	
26	4	0	
26	5	0	
26	6	0	
26	7	0	
26	8	0	
26	9	0	
26	10	0	
26	11	0	
26	12	0	
26	13	0	
26	14	0	
26	15	0	
26	16	0	
26	17	0	
26	18	0	
26	19	0	
26	20	0	
26	21	0	
26	22	0	
26	23	0	
26	24	0	
26	25	0	
26	26	0	
26	27	0	
26	28	0	
26	29	0	
26	30	0	
26	31	0	
26	32	0	
26	33	0	
26	34	0	
26	35	0	
26	36	0	
26	37	0	
26	38	0	
26	39	0	
26	40	0	
27	0	0	
27	1	0	
27	2	0	
27	3	0	
27	4	0	
27	5	0	
27	6	0	
27	7	0	
27	8	0	
27	9	0	
27	10	0	
27	11	0	
27	12	0	
27	13	0	
27	14	0	
27	15	0	
27	16	0	
27	17	0	
27	18	0	
27	19	0	
27	20	0	
27	21	0	
27	22	0	
27	23	0	
27	24	0	
27	25	0	
27	26	0	
27	27	0	
27	28	0	
27	29	0	
27	30	0	
27	31	0	
27	32	0	
27	33	0	
27	34	0	
27	35	0	
27	36	0	
27	37	0	
27	38	0	
27	39	0	
27	40	0	
28	0	0	
28	1	0	
28	2	0	
28	3	0	
28	4	0	
28	5	0	
28	6	0	
28	7	0	
28	8	0	
28	9	0	
28	10	0	
28	11	0	
28	12	0	
28	13	0	
28	14	0	
28	15	0	
28	16	0	
28	17	0	
28	18	0	
28	19	0	
28	20	0	
28	21	0	
28	22	0	
28	23	0	
28	24	0	
28	25	0	
28	26	0	
28	27	0	
28	28	0	
28	29	0	
28	30	0	
[...]
POINT_DATA	2501
VECTORS u float
0	0	0	
0	0	0	
0	0	0	
0	0	0	
0	0	0	
0	0	0	
0	0	0	
0	0	0	
0	0	0	
0	0	0	
0	0	0	
0	0	0	
0	0	0	
0	0	0	
0	0	0	
0	0	0	
0	0	0	
0	0	0	
0	0	0	
0	0	0	
0	0	0	
0	0	0	
0	0	0	
0	0	0	
0	0	0	
0	0	0	
0	0	0	
0	0	0	
0	0	0	
0	0	0	
0	0	0	
0	0	0	
0	0	0	
0	0	0	
0	0	0	
0	0	0	
0	0	0	
0	0	0	
0	0	0	
0	0	0	
0	0	0	
-2.54747e-006	-2.40212e-006	0	
-1.46292e-006	-1.59012e-006	0	
-1.13604e-006	-1.27526e-006	0	
-9.21483e-007	-1.11509e-006	0	
-7.64728e-007	-1.00509e-006	0	
-6.52716e-007	-8.83432e-007	0	
-1.3761e-007	-6.68928e-007	0	
-7.25478e-007	-1.02052e-006	0	
-2.34153e-007	-1.08149e-006	0	
-1.44494e-007	-1.19083e-006	0	
-1.17379e-007	-1.24586e-006	0	
-9.22273e-008	-1.28488e-006	0	
-7.1331e-008	-1.31603e-006	0	
-5.47575e-008	-1.3436e-006	0	
-4.28388e-008	-1.36581e-006	0	
-3.34238e-008	-1.38257e-006	0	
-2.54032e-008	-1.39494e-006	0	
-1.83256e-008	-1.40378e-006	0	
-1.18843e-008	-1.40971e-006	0	
-5.84583e-009	-1.41313e-006	0	
-1.04914e-019	-1.41424e-006	0	
5.84583e-009	-1.41313e-006	0	
1.18843e-008	-1.40971e-006	0	
1.83256e-008	-1.40378e-006	0	
2.54032e-008	-1.39494e-006	0	
3.34238e-008	-1.38257e-006	0	
4.28388e-008	-1.36581e-006	0	
5.47575e-008	-1.3436e-006	0	
7.1331e-008	-1.31603e-006	0	
9.22273e-008	-1.28488e-006	0	
1.17379e-007	-1.24586e-006	0	
1.44494e-007	-1.19083e-006	0	
2.34153e-007	-1.08149e-006	0	
7.25478e-007	-1.02052e-006	0	
1.3761e-007	-6.68928e-007	0	
6.52716e-007	-8.83432e-007	0	
7.64728e-007	-1.00509e-006	0	
9.21483e-007	-1.11509e-006	0	
1.13604e-006	-1.27526e-006	0	
1.46292e-006	-1.59012e-006	0	
2.54747e-006	-2.40212e-006	0	
-4.42713e-006	-4.02695e-006	0	
-3.12971e-006	-3.36452e-006	0	
-2.37329e-006	-2.84223e-006	0	
-1.91252e-006	-2.53283e-006	0	
-1.57419e-006	-2.35206e-006	0	
-1.25692e-006	-2.29285e-006	0	
-9.34336e-007	-2.31886e-006	0	
-1.00538e-006	-2.53589e-006	0	
-4.32281e-007	-2.60796e-006	0	
-2.82133e-007	-2.55364e-006	0	
-2.16854e-007	-2.59442e-006	0	
-1.66946e-007	-2.63699e-006	0	
-1.2194e-007	-2.68999e-006	0	
-9.3894e-008	-2.73614e-006	0	
-7.42869e-008	-2.77106e-006	0	
-5.83134e-008	-2.79757e-006	0	
-4.45538e-008	-2.81731e-006	0	
-3.22515e-008	-2.83159e-006	0	
-2.09811e-008	-2.84122e-006	0	
-1.03423e-008	-2.84677e-006	0	
-1.90292e-019	-2.84858e-006	0	
1.03423e-008	-2.84677e-006	0	
2.09811e-008	-2.84122e-006	0	
3.22515e-008	-2.83159e-006	0	
4.45538e-008	-2.81731e-006	0	
5.83134e-008	-2.79757e-006	0	
7.42869e-008	-2.77106e-006	0	
9.3894e-008	-2.73614e-006	0	
1.2194e-007	-2.68999e-006	0	
1.66946e-007	-2.63699e-006	0	
2.16854e-007	-2.59442e-006	0	
2.82133e-007	-2.55364e-006	0	
4.32281e-007	-2.60796e-006	0	
1.00538e-006	-2.53589e-006	0	
9.34336e-007	-2.31886e-006	0	
1.25692e-006	-2.29285e-006	0	
1.57419e-006	-2.35206e-006	0	
1.91252e-006	-2.53283e-006	0	
2.37329e-006	-2.84223e-006	0	
3.12971e-006	-3.36452e-006	0	
4.42713e-006	-4.02695e-006	0	
-5.9967e-006	-5.61644e-006	0	
-4.63116e-006	-5.00343e-006	0	
-3.64521e-006	-4.48358e-006	0	
-2.93682e-006	-4.10291e-006	0	
-2.38806e-006	-3.86413e-006	0	
-1.91121e-006	-3.72341e-006	0	
-1.51107e-006	-3.62744e-006	0	
-1.13339e-006	-3.57788e-006	0	
-5.07188e-007	-3.72574e-006	0	
-3.93516e-007	-3.97251e-006	0	
-3.3259e-007	-3.97901e-006	0	
-2.13307e-007	-4.05537e-006	0	
-1.56494e-007	-4.13182e-006	0	
-1.25096e-007	-4.18188e-006	0	
-9.99339e-008	-4.21972e-006	0	
-7.88811e-008	-4.2483e-006	0	
-6.02916e-008	-4.27019e-006	0	
-4.37646e-008	-4.28618e-006	0	
-2.85578e-008	-4.29696e-006	0	
-1.41067e-008	-4.30316e-006	0	
-2.62162e-019	-4.30518e-006	0	
1.41067e-008	-4.30316e-006	0	
2.85578e-008	-4.29696e-006	0	
4.37646e-008	-4.28618e-006	0	
6.02916e-008	-4.27019e-006	0	
7.88811e-008	-4.2483e-006	0	
9.99339e-008	-4.21972e-006	0	
1.25096e-007	-4.18188e-006	0	
1.56494e-007	-4.13182e-006	0	
2.13307e-007	-4.05537e-006	0	
3.3259e-007	-3.97901e-006	0	
3.93516e-007	-3.97251e-006	0	
5.07188e-007	-3.72574e-006	0	
1.13339e-006	-3.57788e-006	0	
1.51107e-006	-3.62744e-006	0	
1.91121e-006	-3.72341e-006	0	
2.38806e-006	-3.86413e-006	0	
2.93682e-006	-4.10291e-006	0	
3.64521e-006	-4.48358e-006	0	
4.63116e-006	-5.00343e-006	0	
5.9967e-006	-5.61644e-006	0	
-7.40258e-006	-7.17245e-006	0	
-5.98749e-006	-6.61451e-006	0	
-4.85292e-006	-6.11827e-006	0	
-3.95337e-006	-5.72761e-006	0	
-3.22227e-006	-5.45011e-006	0	
-2.60779e-006	-5.26604e-006	0	
-2.07153e-006	-5.1536e-006	0	
-1.54348e-006	-5.09167e-006	0	
-5.72252e-007	-4.92186e-006	0	
-6.82559e-007	-5.27886e-006	0	
-3.53027e-007	-5.4271e-006	0	
-2.272e-007	-5.58617e-006	0	
-1.92005e-007	-5.63976e-006	0	
-1.55982e-007	-5.68093e-006	0	
-1.26331e-007	-5.70982e-006	0	
-9.87304e-008	-5.73463e-006	0	
-7.55231e-008	-5.75414e-006	0	
-5.50292e-008	-5.76813e-006	0	
-3.60209e-008	-5.77748e-006	0	
-1.78312e-008	-5.78281e-006	0	
-3.04956e-019	-5.78454e-006	0	
1.78312e-008	-5.78281e-006	0	
3.60209e-008	-5.77748e-006	0	
5.50292e-008	-5.76813e-006	0	
7.55231e-008	-5.75414e-006	0	
9.87304e-008	-5.73463e-006	0	
1.26331e-007	-5.70982e-006	0	
1.55982e-007	-5.68093e-006	0	
1.92005e-007	-5.63976e-006	0	
2.272e-007	-5.58617e-006	0	
3.53027e-007	-5.4271e-006	0	
6.82559e-007	-5.27886e-006	0	
5.72252e-007	-4.92186e-006	0	
1.54348e-006	-5.09167e-006	0	
2.07153e-006	-5.1536e-006	0	
2.60779e-006	-5.26604e-006	0	
3.22227e-006	-5.45011e-006	0	
3.95337e-006	-5.72761e-006	0	
4.85292e-006	-6.11827e-006	0	
5.98749e-006	-6.61451e-006	0	
7.40258e-006	-7.17245e-006	0	
-8.69052e-006	-8.73323e-006	0	
-7.2299e-006	-8.21633e-006	0	
-5.98301e-006	-7.75077e-006	0	
-4.93217e-006	-7.3702e-006	0	
-4.04519e-006	-7.08937e-006	0	
-3.28642e-006	-6.90711e-006	0	
-2.61519e-006	-6.81867e-006	0	
-1.94626e-006	-6.83235e-006	0	
-1.24829e-006	-6.90931e-006	0	
-9.75418e-007	-7.1228e-006	0	
-2.6872e-007	-7.2263e-006	0	
-2.85098e-007	-7.17726e-006	0	
-2.33246e-007	-7.21193e-006	0	
-2.00652e-007	-7.21737e-006	0	
-1.54754e-007	-7.23621e-006	0	
-1.20737e-007	-7.2549e-006	0	
-9.31225e-008	-7.26748e-006	0	
-6.81831e-008	-7.27601e-006	0	
-4.47844e-008	-7.28142e-006	0	
-2.21921e-008	-7.28448e-006	0	
-3.54598e-019	-7.28547e-006	0	
2.21921e-008	-7.28448e-006	0	
4.47844e-008	-7.28142e-006	0	
6.81831e-008	-7.27601e-006	0	
9.31225e-008	-7.26748e-006	0	
1.20737e-007	-7.2549e-006	0	
1.54754e-007	-7.23621e-006	0	
2.00652e-007	-7.21737e-006	0	
2.33246e-007	-7.21193e-006	0	
2.85098e-007	-7.17726e-006	0	
2.6872e-007	-7.2263e-006	0	
9.75418e-007	-7.1228e-006	0	
1.24829e-006	-6.90931e-006	0	
1.94626e-006	-6.83235e-006	0	
2.61519e-006	-6.81867e-006	0	
3.28642e-006	-6.90711e-006	0	
4.04519e-006	-7.08937e-006	0	
4.93217e-006	-7.3702e-006	0	
5.98301e-006	-7.75077e-006	0	
7.2299e-006	-8.21633e-006	0	
8.69052e-006	-8.73323e-006	0	
-9.89183e-006	-1.0308e-005	0	
-8.38443e-006	-9.82268e-006	0	
-7.04066e-006	-9.38396e-006	0	
-5.85942e-006	-9.02118e-006	0	
-4.82929e-006	-8.75203e-006	0	
-3.93195e-006	-8.58028e-006	0	
-3.13409e-006	-8.49762e-006	0	
-2.39091e-006	-8.47087e-006	0	
-1.72462e-006	-8.4438e-006	0	
-1.1183e-006	-8.42317e-006	0	
-3.74143e-007	-8.57952e-006	0	
-2.94136e-007	-8.85951e-006	0	
-3.40091e-007	-8.77422e-006	0	
-2.40341e-007	-8.77801e-006	0	
-1.84981e-007	-8.80061e-006	0	
-1.48842e-007	-8.80558e-006	0	
-1.15856e-007	-8.80684e-006	0	
-8.536e-008	-8.80623e-006	0	
-5.6043e-008	-8.80568e-006	0	
-2.77767e-008	-8.80533e-006	0	
-3.38086e-019	-8.8052e-006	0	
2.77767e-008	-8.80533e-006	0	
5.6043e-008	-8.80568e-006	0	
8.536e-008	-8.80623e-006	0	
1.15856e-007	-8.80684e-006	0	
1.48842e-007	-8.80558e-006	0	
1.84981e-007	-8.80061e-006	0	
2.40341e-007	-8.77801e-006	0	
3.40091e-007	-8.77422e-006	0	
2.94136e-007	-8.85951e-006	0	
3.74143e-007	-8.57952e-006	0	
1.1183e-006	-8.42317e-006	0	
1.72462e-006	-8.4438e-006	0	
2.39091e-006	-8.47087e-006	0	
3.13409e-006	-8.49762e-006	0	
3.93195e-006	-8.58028e-006	0	
4.82929e-006	-8.75203e-006	0	
5.85942e-006	-9.02118e-006	0	
7.04066e-006	-9.38396e-006	0	
8.38443e-006	-9.82268e-006	0	
9.89183e-006	-1.0308e-005	0	
-1.10305e-005	-1.1906e-005	0	
-9.47215e-006	-1.14431e-005	0	
-8.03742e-006	-1.10238e-005	0	
-6.73434e-006	-1.06748e-005	0	
-5.56723e-006	-1.04165e-005	0	
-4.54038e-006	-1.02544e-005	0	
-3.64675e-006	-1.01683e-005	0	
-2.86475e-006	-1.01216e-005	0	
-2.16783e-006	-1.00895e-005	0	
-1.50849e-006	-1.00572e-005	0	
-4.50254e-007	-9.88535e-006	0	
-6.20377e-007	-1.02681e-005	0	
-3.74293e-007	-1.03206e-005	0	
-2.6293e-007	-1.04135e-005	0	
-2.29705e-007	-1.03982e-005	0	
-1.86725e-007	-1.03827e-005	0	
-1.47482e-007	-1.03651e-005	0	
-1.07754e-007	-1.03534e-005	0	
-7.06456e-008	-1.03458e-005	0	
-3.50423e-008	-1.03412e-005	0	
-3.93311e-019	-1.03396e-005	0	
3.50423e-008	-1.03412e-005	0	
7.06456e-008	-1.03458e-005	0	
1.07754e-007	-1.03534e-005	0	
1.47482e-007	-1.03651e-005	0	
1.86725e-007	-1.03827e-005	0	
2.29705e-007	-1.03982e-005	0	
2.6293e-007	-1.04135e-005	0	
3.74293e-007	-1.03206e-005	0	
6.20377e-007	-1.02681e-005	0	
4.50254e-007	-9.88535e-006	0	
1.50849e-006	-1.00572e-005	0	
2.16783e-006	-1.00895e-005	0	
2.86475e-006	-1.01216e-005	0	
3.64675e-006	-1.01683e-005	0	
4.54038e-006	-1.02544e-005	0	
5.56723e-006	-1.04165e-005	0	
6.73434e-006	-1.06748e-005	0	
8.03742e-006	-1.10238e-005	0	
9.47215e-006	-1.14431e-005	0	
1.10305e-005	-1.1906e-005	0	
-1.21256e-005	-1.35389e-005	0	
-1.05103e-005	-1.30913e-005	0	
-8.98923e-006	-1.26818e-005	0	
-7.56768e-006	-1.23324e-005	0	
-6.25917e-006	-1.20746e-005	0	
-5.10212e-006	-1.19202e-005	0	
-4.13161e-006	-1.18449e-005	0	
-3.31365e-006	-1.18071e-005	0	
-2.58699e-006	-1.1797e-005	0	
-1.86838e-006	-1.18424e-005	0	
-1.14871e-006	-1.19265e-005	0	
-9.36637e-007	-1.21443e-005	0	
-3.22069e-007	-1.22566e-005	0	
-3.52828e-007	-1.20773e-005	0	
-2.88916e-007	-1.20287e-005	0	
-2.46485e-007	-1.1967e-005	0	
-1.86664e-007	-1.19325e-005	0	
-1.35522e-007	-1.19116e-005	0	
-8.91761e-008	-1.18962e-005	0	
-4.43178e-008	-1.18868e-005	0	
-2.70495e-019	-1.18837e-005	0	
4.43178e-008	-1.18868e-005	0	
8.91761e-008	-1.18962e-005	0	
1.35522e-007	-1.19116e-005	0	
1.86664e-007	-1.19325e-005	0	
2.46485e-007	-1.1967e-005	0	
2.88916e-007	-1.20287e-005	0	
3.52828e-007	-1.20773e-005	0	
3.22069e-007	-1.22566e-005	0	
9.36637e-007	-1.21443e-005	0	
1.14871e-006	-1.19265e-005	0	
1.86838e-006	-1.18424e-005	0	
2.58699e-006	-1.1797e-005	0	
3.31365e-006	-1.18071e-005	0	
4.13161e-006	-1.18449e-005	0	
5.10212e-006	-1.19202e-005	0	
6.25917e-006	-1.20746e-005	0	
7.56768e-006	-1.23324e-005	0	
8.98923e-006	-1.26818e-005	0	
1.05103e-005	-1.30913e-005	0	
1.21256e-005	-1.35389e-005	0	
-1.3189e-005	-1.5222e-005	0	
-1.15119e-005	-1.47856e-005	0	
-9.9121e-006	-1.4379e-005	0	
-8.3845e-006	-1.40144e-005	0	
-6.91657e-006	-1.37199e-005	0	
-5.58934e-006	-1.35714e-005	0	
-4.56671e-006	-1.35129e-005	0	
-3.7361e-006	-1.3475e-005	0	
-2.98552e-006	-1.34571e-005	0	
-2.26734e-006	-1.34485e-005	0	
-1.62856e-006	-1.34133e-005	0	
-1.08198e-006	-1.33833e-005	0	
-4.35725e-007	-1.35379e-005	0	
-4.08234e-007	-1.38049e-005	0	
-4.2403e-007	-1.36103e-005	0	
-3.07415e-007	-1.35367e-005	0	
-2.29055e-007	-1.35063e-005	0	
-1.693e-007	-1.34746e-005	0	
-1.11967e-007	-1.34511e-005	0	
-5.59648e-008	-1.34363e-005	0	
-3.98771e-019	-1.34314e-005	0	
5.59648e-008	-1.34363e-005	0	
1.11967e-007	-1.34511e-005	0	
1.693e-007	-1.34746e-005	0	
2.29055e-007	-1.35063e-005	0	
3.07415e-007	-1.35367e-005	0	
4.2403e-007	-1.36103e-005	0	
4.08234e-007	-1.38049e-005	0	
4.35725e-007	-1.35379e-005	0	
1.08198e-006	-1.33833e-005	0	
1.62856e-006	-1.34133e-005	0	
2.26734e-006	-1.34485e-005	0	
2.98552e-006	-1.34571e-005	0	
3.7361e-006	-1.3475e-005	0	
4.56671e-006	-1.35129e-005	0	
5.58934e-006	-1.35714e-005	0	
6.91657e-006	-1.37199e-005	0	
8.3845e-006	-1.40144e-005	0	
9.9121e-006	-1.4379e-005	0	
1.15119e-005	-1.47856e-005	0	
1.3189e-005	-1.5222e-005	0	
-1.42229e-005	-1.69686e-005	0	
-1.24834e-005	-1.65439e-005	0	
-1.08171e-005	-1.61406e-005	0	
-9.20199e-006	-1.57617e-005	0	
-7.60742e-006	-1.5417e-005	0	
-5.95794e-006	-1.51595e-005	0	
-4.94385e-006	-1.51167e-005	0	
-4.13923e-006	-1.50935e-005	0	
-3.3973e-006	-1.50564e-005	0	
-2.70564e-006	-1.50106e-005	0	
-2.06905e-006	-1.49641e-005	0	
-1.47386e-006	-1.49147e-005	0	
-5.09568e-007	-1.47403e-005	0	
-7.22264e-007	-1.51022e-005	0	
-4.92001e-007	-1.50987e-005	0	
-3.46228e-007	-1.51347e-005	0	
-2.81127e-007	-1.50809e-005	0	
-2.09203e-007	-1.50377e-005	0	
-1.40302e-007	-1.50029e-005	0	
-6.9633e-008	-1.49833e-005	0	
-8.89172e-020	-1.49772e-005	0	
6.9633e-008	-1.49833e-005	0	
1.40302e-007	-1.50029e-005	0	
2.09203e-007	-1.50377e-005	0	
2.81127e-007	-1.50809e-005	0	
3.46228e-007	-1.51347e-005	0	
4.92001e-007	-1.50987e-005	0	
7.22264e-007	-1.51022e-005	0	
5.09568e-007	-1.47403e-005	0	
1.47386e-006	-1.49147e-005	0	
2.06905e-006	-1.49641e-005	0	
2.70564e-006	-1.50106e-005	0	
3.3973e-006	-1.50564e-005	0	
4.13923e-006	-1.50935e-005	0	
4.94385e-006	-1.51167e-005	0	
5.95794e-006	-1.51595e-005	0	
7.60742e-006	-1.5417e-005	0	
9.20199e-006	-1.57617e-005	0	
1.08171e-005	-1.61406e-005	0	
1.24834e-005	-1.65439e-005	0	
1.42229e-005	-1.69686e-005	0	
-1.5221e-005	-1.87832e-005	0	
-1.34254e-005	-1.83737e-005	0	
-1.17053e-005	-1.79805e-005	0	
-1.0024e-005	-1.76045e-005	0	
-8.3292e-006	-1.72572e-005	0	
-6.50245e-006	-1.69462e-005	0	
-5.36716e-006	-1.67829e-005	0	
-4.5297e-006	-1.66682e-005	0	
-3.81824e-006	-1.66042e-005	0	
-3.1266e-006	-1.6568e-005	0	
-2.48429e-006	-1.65471e-005	0	
-1.83682e-006	-1.65725e-005	0	
-1.18663e-006	-1.66364e-005	0	
-1.01835e-006	-1.68381e-005	0	
-4.61928e-007	-1.6942e-005	0	
-4.35456e-007	-1.67304e-005	0	
-3.38568e-007	-1.66587e-005	0	
-2.6349e-007	-1.65843e-005	0	
-1.70959e-007	-1.65434e-005	0	
-8.43471e-008	-1.65229e-005	0	
-4.18755e-019	-1.65159e-005	0	
8.43471e-008	-1.65229e-005	0	
1.70959e-007	-1.65434e-005	0	
2.6349e-007	-1.65843e-005	0	
3.38568e-007	-1.66587e-005	0	
4.35456e-007	-1.67304e-005	0	
4.61928e-007	-1.6942e-005	0	
1.01835e-006	-1.68381e-005	0	
1.18663e-006	-1.66364e-005	0	
1.83682e-006	-1.65725e-005	0	
2.48429e-006	-1.65471e-005	0	
3.1266e-006	-1.6568e-005	0	
3.81824e-006	-1.66042e-005	0	
4.5297e-006	-1.66682e-005	0	
5.36716e-006	-1.67829e-005	0	
6.50245e-006	-1.69462e-005	0	
8.3292e-006	-1.72572e-005	0	
1.0024e-005	-1.76045e-005	0	
1.17053e-005	-1.79805e-005	0	
1.34254e-005	-1.83737e-005	0	
1.5221e-005	-1.87832e-005	0	
-1.61737e-005	-2.06563e-005	0	
-1.43352e-005	-2.02657e-005	0	
-1.25741e-005	-1.98884e-005	0	
-1.08429e-005	-1.95264e-005	0	
-9.0794e-006	-1.91855e-005	0	
-7.21455e-006	-1.88632e-005	0	
-5.44386e-006	-1.79584e-005	0	
-4.95578e-006	-1.8112e-005	0	
-4.2028e-006	-1.81116e-005	0	
-3.52648e-006	-1.80966e-005	0	
-2.87928e-006	-1.80758e-005	0	
-2.23604e-006	-1.80557e-005	0	
-1.65677e-006	-1.80093e-005	0	
-1.14736e-006	-1.79683e-005	0	
-5.68591e-007	-1.8116e-005	0	
-4.70977e-007	-1.83437e-005	0	
-4.54572e-007	-1.81652e-005	0	
-3.10078e-007	-1.8098e-005	0	
-1.98773e-007	-1.80728e-005	0	
-9.98347e-008	-1.80515e-005	0	
2.03753e-019	-1.80444e-005	0	
9.98347e-008	-1.80515e-005	0	
1.98773e-007	-1.80728e-005	0	
3.10078e-007	-1.8098e-005	0	
4.54572e-007	-1.81652e-005	0	
4.70977e-007	-1.83437e-005	0	
5.68591e-007	-1.8116e-005	0	
1.14736e-006	-1.79683e-005	0	
1.65677e-006	-1.80093e-005	0	
2.23604e-006	-1.80557e-005	0	
2.87928e-006	-1.80758e-005	0	
3.52648e-006	-1.80966e-005	0	
4.2028e-006	-1.81116e-005	0	
4.95578e-006	-1.8112e-005	0	
5.44386e-006	-1.79584e-005	0	
7.21455e-006	-1.88632e-005	0	
9.0794e-006	-1.91855e-005	0	
1.08429e-005	-1.95264e-005	0	
1.25741e-005	-1.98884e-005	0	
1.43352e-005	-2.02657e-005	0	
1.61737e-005	-2.06563e-005	0	
-1.70746e-005	-2.25662e-005	0	
-1.52107e-005	-2.2196e-005	0	
-1.34213e-005	-2.18377e-005	0	
-1.16603e-005	-2.14906e-005	0	
-9.86947e-006	-2.11484e-005	0	
-7.98104e-006	-2.0806e-005	0	
-5.65883e-006	-1.95266e-005	0	
-5.40092e-006	-1.97295e-005	0	
-4.55866e-006	-1.96222e-005	0	
-3.92155e-006	-1.95886e-005	0	
-3.2887e-006	-1.95511e-005	0	
-2.6709e-006	-1.95037e-005	0	
-2.08637e-006	-1.94551e-005	0	
-1.52954e-006	-1.94061e-005	0	
-6.39057e-007	-1.92473e-005	0	
-7.4192e-007	-1.95635e-005	0	
-4.92948e-007	-1.95746e-005	0	
-3.27056e-007	-1.96236e-005	0	
-2.28941e-007	-1.95913e-005	0	
-1.16523e-007	-1.9569e-005	0	
-5.16294e-019	-1.95585e-005	0	
1.16523e-007	-1.9569e-005	0	
2.28941e-007	-1.95913e-005	0	
3.27056e-007	-1.96236e-005	0	
4.92948e-007	-1.95746e-005	0	
7.4192e-007	-1.95635e-005	0	
6.39057e-007	-1.92473e-005	0	
1.52954e-006	-1.94061e-005	0	
2.08637e-006	-1.94551e-005	0	
2.6709e-006	-1.95037e-005	0	
3.2887e-006	-1.95511e-005	0	
3.92155e-006	-1.95886e-005	0	
4.55866e-006	-1.96222e-005	0	
5.40092e-006	-1.97295e-005	0	
5.65883e-006	-1.95266e-005	0	
7.98104e-006	-2.0806e-005	0	
9.86947e-006	-2.11484e-005	0	
1.16603e-005	-2.14906e-005	0	
1.34213e-005	-2.18377e-005	0	
1.52107e-005	-2.2196e-005	0	
1.70746e-005	-2.25662e-005	0	
-1.79254e-005	-2.44858e-005	0	
-1.60529e-005	-2.41339e-005	0	
-1.42438e-005	-2.37949e-005	0	
-1.24746e-005	-2.34719e-005	0	
-1.06957e-005	-2.31364e-005	0	
-8.81108e-006	-2.27791e-005	0	
-7.57815e-006	-2.22957e-005	0	
-5.48842e-006	-2.09452e-005	0	
-4.96817e-006	-2.11065e-005	0	
-4.31555e-006	-2.10396e-005	0	
-3.70918e-006	-2.09901e-005	0	
-3.08694e-006	-2.0963e-005	0	
-2.49363e-006	-2.09442e-005	0	
-1.88311e-006	-2.09595e-005	0	
-1.24678e-006	-2.10073e-005	0	
-9.97971e-007	-2.11868e-005	0	
-4.27757e-007	-2.1287e-005	0	
-3.76515e-007	-2.11392e-005	0	
-2.58347e-007	-2.11073e-005	0	
-1.42375e-007	-2.10681e-005	0	
6.42587e-019	-2.10571e-005	0	
1.42375e-007	-2.10681e-005	0	
2.58347e-007	-2.11073e-005	0	
3.76515e-007	-2.11392e-005	0	
4.27757e-007	-2.1287e-005	0	
9.97971e-007	-2.11868e-005	0	
1.24678e-006	-2.10073e-005	0	
1.88311e-006	-2.09595e-005	0	
2.49363e-006	-2.09442e-005	0	
3.08694e-006	-2.0963e-005	0	
3.70918e-006	-2.09901e-005	0	
4.31555e-006	-2.10396e-005	0	
4.96817e-006	-2.11065e-005	0	
5.48842e-006	-2.09452e-005	0	
7.57815e-006	-2.22957e-005	0	
8.81108e-006	-2.27791e-005	0	
1.06957e-005	-2.31364e-005	0	
1.24746e-005	-2.34719e-005	0	
1.42438e-005	-2.37949e-005	0	
1.60529e-005	-2.41339e-005	0	
1.79254e-005	-2.44858e-005	0	
-1.87379e-005	-2.6392e-005	0	
-1.68669e-005	-2.60523e-005	0	
-1.50424e-005	-2.57273e-005	0	
-1.32606e-005	-2.54277e-005	0	
-1.15425e-005	-2.51476e-005	0	
-9.74654e-006	-2.47583e-005	0	
-1.00308e-005	-2.50351e-005	0	
-5.61033e-006	-2.21073e-005	0	
-5.06412e-006	-2.22183e-005	0	
-4.74284e-006	-2.23846e-005	0	
-4.09338e-006	-2.24207e-005	0	
-3.48073e-006	-2.24281e-005	0	
-2.88655e-006	-2.24105e-005	0	
-2.27072e-006	-2.23898e-005	0	
-1.68746e-006	-2.23482e-005	0	
-1.10771e-006	-2.2298e-005	0	
-5.34137e-007	-2.24508e-005	0	
-3.49895e-007	-2.26561e-005	0	
-3.36859e-007	-2.25647e-005	0	
-1.54253e-007	-2.25488e-005	0	
-5.88479e-019	-2.256e-005	0	
1.54253e-007	-2.25488e-005	0	
3.36859e-007	-2.25647e-005	0	
3.49895e-007	-2.26561e-005	0	
5.34137e-007	-2.24508e-005	0	
1.10771e-006	-2.2298e-005	0	
1.68746e-006	-2.23482e-005	0	
2.27072e-006	-2.23898e-005	0	
2.88655e-006	-2.24105e-005	0	
3.48073e-006	-2.24281e-005	0	
4.09338e-006	-2.24207e-005	0	
4.74284e-006	-2.23846e-005	0	
5.06412e-006	-2.22183e-005	0	
5.61033e-006	-2.21073e-005	0	
1.00308e-005	-2.50351e-005	0	
9.74654e-006	-2.47583e-005	0	
1.15425e-005	-2.51476e-005	0	
1.32606e-005	-2.54277e-005	0	
1.50424e-005	-2.57273e-005	0	
1.68669e-005	-2.60523e-005	0	
1.87379e-005	-2.6392e-005	0	
-1.95303e-005	-2.82754e-005	0	
-1.76624e-005	-2.79397e-005	0	
-1.58225e-005	-2.76153e-005	0	
-1.40284e-005	-2.73124e-005	0	
-1.22972e-005	-2.70461e-005	0	
-1.0888e-005	-2.68095e-005	0	
-1.017e-005	-2.68777e-005	0	
-8.70413e-006	-2.68055e-005	0	
-5.29612e-006	-2.37944e-005	0	
-5.3022e-006	-2.40819e-005	0	
-4.44328e-006	-2.39362e-005	0	
-3.88384e-006	-2.38919e-005	0	
-3.30007e-006	-2.38474e-005	0	
-2.69104e-006	-2.38068e-005	0	
-2.08422e-006	-2.37816e-005	0	
-1.49356e-006	-2.37645e-005	0	
-6.12575e-007	-2.36294e-005	0	
-5.89978e-007	-2.39354e-005	0	
-3.49769e-007	-2.39735e-005	0	
-1.23743e-007	-2.40762e-005	0	
1.59358e-018	-2.40922e-005	0	
1.23743e-007	-2.40762e-005	0	
3.49769e-007	-2.39735e-005	0	
5.89978e-007	-2.39354e-005	0	
6.12575e-007	-2.36294e-005	0	
1.49356e-006	-2.37645e-005	0	
2.08422e-006	-2.37816e-005	0	
2.69104e-006	-2.38068e-005	0	
3.30007e-006	-2.38474e-005	0	
3.88384e-006	-2.38919e-005	0	
4.44328e-006	-2.39362e-005	0	
5.3022e-006	-2.40819e-005	0	
5.29612e-006	-2.37944e-005	0	
8.70413e-006	-2.68055e-005	0	