# vtk DataFile Version 4.1
vtk output
ASCII
DATASET UNSTRUCTURED_GRID

POINTS	2501	float
0	0	0	
0	1	0	
0	2	0	
0	3	0	
0	4	0	
0	5	0	
0	6	0	
0	7	0	
0	8	0	
0	9	0	
0	10	0	
0	11	0	
0	12	0	
0	13	0	
0	14	0	
0	15	0	
0	16	0	
0	17	0	
0	18	0	
0	19	0	
0	20	0	
0	21	0	
0	22	0	
0	23	0	
0	24	0	
0	25	0	
0	26	0	
0	27	0	
0	28	0	
0	29	0	
0	30	0	
0	31	0	
0	32	0	
0	33	0	
0	34	0	
0	35	0	
0	36	0	
0	37	0	
0	38	0	
0	39	0	
0	40	0	
1	0	0	
1	1	0	
1	2	0	
1	3	0	
1	4	0	
1	5	0	
1	6	0	
1	7	0	
1	8	0	
1	9	0	
1	10	0	
1	11	0	
1	12	0	
1	13	0	
1	14	0	
1	15	0	
1	16	0	
1	17	0	
1	18	0	
1	19	0	
1	20	0	
1	21	0	
1	22	0	
1	23	0	
1	24	0	
1	25	0	
1	26	0	
1	27	0	
1	28	0	
1	29	0	
1	30	0	
1	31	0	
1	32	0	
1	33	0	
1	34	0	
1	35	0	
1	36	0	
1	37	0	
1	38	0	
1	39	0	
1	40	0	
2	0	0	
2	1	0	
2	2	0	
2	3	0	
2	4	0	
2	5	0	
2	6	0	
2	7	0	
2	8	0	
2	9	0	
2	10	0	
2	11	0	
2	12	0	
2	13	0	
2	14	0	
2	15	0	
2	16	0	
2	17	0	
2	18	0	
2	19	0	
2	20	0	
2	21	0	
2	22	0	
2	23	0	
2	24	0	
2	25	0	
2	26	0	
2	27	0	
2	28	0	
2	29	0	
2	30	0	
2	31	0	
2	32	0	
2	33	0	
2	34	0	
2	35	0	
2	36	0	
2	37	0	
2	38	0	
2	39	0	
2	40	0	
3	0	0	
3	1	0	
3	2	0	
3	3	0	
3	4	0	
3	5	0	
3	6	0	
3	7	0	
3	8	0	
3	9	0	
3	10	0	
3	11	0	
3	12	0	
3	13	0	
3	14	0	
3	15	0	
3	16	0	
3	17	0	
3	18	0	
3	19	0	
3	20	0	
3	21	0	
3	22	0	
3	23	0	
3	24	0	
3	25	0	
3	26	0	
3	27	0	
3	28	0	
3	29	0	
3	30	0	
3	31	0	
3	32	0	
3	33	0	
3	34	0	
3	35	0	
3	36	0	
3	37	0	
3	38	0	
3	39	0	
3	40	0	
4	0	0	
4	1	0	
4	2	0	
4	3	0	
4	4	0	
4	5	0	
4	6	0	
4	7	0	
4	8	0	
4	9	0	
4	10	0	
4	11	0	
4	12	0	
4	13	0	
4	14	0	
4	15	0	
4	16	0	
4	17	0	
4	18	0	
4	19	0	
4	20	0	
4	21	0	
4	22	0	
4	23	0	
4	24	0	
4	25	0	
4	26	0	
4	27	0	
4	28	0	
4	29	0	
4	30	0	
4	31	0	
4	32	0	
4	33	0	
4	34	0	
4	35	0	
4	36	0	
4	37	0	
4	38	0	
4	39	0	
4	40	0	
5	0	0	
5	1	0	
5	2	0	
5	3	0	
5	4	0	
5	5	0	
5	6	0	
5	7	0	
5	8	0	
5	9	0	
5	10	0	
5	11	0	
5	12	0	
5	13	0	
5	14	0	
5	15	0	
5	16	0	
5	17	0	
5	18	0	
5	19	0	
5	20	0	
5	21	0	
5	22	0	
5	23	0	
5	24	0	
5	25	0	
5	26	0	
5	27	0	
5	28	0	
5	29	0	
5	30	0	
5	31	0	
5	32	0	
5	33	0	
5	34	0	
5	35	0	
5	36	0	
5	37	0	
5	38	0	
5	39	0	
5	40	0	
6	0	0	
6	1	0	
6	2	0	
6	3	0	
6	4	0	
6	5	0	
6	6	0	
6	7	0	
6	8	0	
6	9	0	
6	10	0	
6	11	0	
6	12	0	
6	13	0	
6	14	0	
6	15	0	
6	16	0	
6	17	0	
6	18	0	
6	19	0	
6	20	0	
6	21	0	
6	22	0	
6	23	0	
6	24	0	
6	25	0	
6	26	0	
6	27	0	
6	28	0	
6	29	0	
6	30	0	
6	31	0	
6	32	0	
6	33	0	
6	34	0	
6	35	0	
6	36	0	
6	37	0	
6	38	0	
6	39	0	
6	40	0	
7	0	0	
7	1	0	
7	2	0	
7	3	0	
7	4	0	
7	5	0	
7	6	0	
7	7	0	
7	8	0	
7	9	0	
7	10	0	
7	11	0	
7	12	0	
7	13	0	
7	14	0	
7	15	0	
7	16	0	
7	17	0	
7	18	0	
7	19	0	
7	20	0	
7	21	0	
7	22	0	
7	23	0	
7	24	0	
7	25	0	
7	26	0	
7	27	0	
7	28	0	
7	29	0	
7	30	0	
7	31	0	
7	32	0	
7	33	0	
7	34	0	
7	35	0	
7	36	0	
7	37	0	
7	38	0	
7	39	0	
7	40	0	
8	0	0	
8	1	0	
8	2	0	
8	3	0	
8	4	0	
8	5	0	
8	6	0	
8	7	0	
8	8	0	
8	9	0	
8	10	0	
8	11	0	
8	12	0	
8	13	0	
8	14	0	
8	15	0	
8	16	0	
8	17	0	
8	18	0	
8	19	0	
8	20	0	
8	21	0	
8	22	0	
8	23	0	
8	24	0	
8	25	0	
8	26	0	
8	27	0	
8	28	0	
8	29	0	
8	30	0	
8	31	0	
8	32	0	
8	33	0	
8	34	0	
8	35	0	
8	36	0	
8	37	0	
8	38	0	
8	39	0	
8	40	0	
9	0	0	
9	1	0	
9	2	0	
9	3	0	
9	4	0	
9	5	0	
9	6	0	
9	7	0	
9	8	0	
9	9	0	
9	10	0	
9	11	0	
9	12	0	
9	13	0	
9	14	0	
9	15	0	
9	16	0	
9	17	0	
9	18	0	
9	19	0	
9	20	0	
9	21	0	
9	22	0	
9	23	0	
9	24	0	
9	25	0	
9	26	0	
9	27	0	
9	28	0	
9	29	0	
9	30	0	
9	31	0	
9	32	0	
9	33	0	
9	34	0	
9	35	0	
9	36	0	
9	37	0	
9	38	0	
9	39	0	
9	40	0	
10	0	0	
10	1	0	
10	2	0	
10	3	0	
10	4	0	
10	5	0	
10	6	0	
10	7	0	
10	8	0	
10	9	0	
10	10	0	
10	11	0	
10	12	0	
10	13	0	
10	14	0	
10	15	0	
10	16	0	
10	17	0	
10	18	0	
10	19	0	
10	20	0	
10	21	0	
10	22	0	
10	23	0	
10	24	0	
10	25	0	
10	26	0	
10	27	0	
10	28	0	
10	29	0	
10	30	0	
10	31	0	
10	32	0	
10	33	0	
10	34	0	
10	35	0	
10	36	0	
10	37	0	
10	38	0	
10	39	0	
10	40	0	
11	0	0	
11	1	0	
11	2	0	
11	3	0	
11	4	0	
11	5	0	
11	6	0	
11	7	0	
11	8	0	
11	9	0	
11	10	0	
11	11	0	
11	12	0	
11	13	0	
11	14	0	
11	15	0	
11	16	0	
11	17	0	
11	18	0	
11	19	0	
11	20	0	
11	21	0	
11	22	0	
11	23	0	
11	24	0	
11	25	0	
11	26	0	
11	27	0	
11	28	0	
11	29	0	
11	30	0	
11	31	0	
11	32	0	
11	33	0	
11	34	0	
11	35	0	
11	36	0	
11	37	0	
11	38	0	
11	39	0	
11	40	0	
12	0	0	
12	1	0	
12	2	0	
12	3	0	
12	4	0	
12	5	0	
12	6	0	
12	7	0	
12	8	0	
12	9	0	
12	10	0	
12	11	0	
12	12	0	
12	13	0	
12	14	0	
12	15	0	
12	16	0	
12	17	0	
12	18	0	
12	19	0	
12	20	0	
12	21	0	
12	22	0	
12	23	0	
12	24	0	
12	25	0	
12	26	0	
12	27	0	
12	28	0	
12	29	0	
12	30	0	
12	31	0	
12	32	0	
12	33	0	
12	34	0	
12	35	0	
12	36	0	
12	37	0	
12	38	0	
12	39	0	
12	40	0	
13	0	0	
13	1	0	
13	2	0	
13	3	0	
13	4	0	
13	5	0	
13	6	0	
13	7	0	
13	8	0	
13	9	0	
13	10	0	
13	11	0	
13	12	0	
13	13	0	
13	14	0	
13	15	0	
13	16	0	
13	17	0	
13	18	0	
13	19	0	
13	20	0	
13	21	0	
13	22	0	
13	23	0	
13	24	0	
13	25	0	
13	26	0	
13	27	0	
13	28	0	
13	29	0	
13	30	0	
13	31	0	
13	32	0	
13	33	0	
13	34	0	
13	35	0	
13	36	0	
13	37	0	
13	38	0	
13	39	0	
13	40	0	
14	0	0	
14	1	0	
14	2	0	
14	3	0	
14	4	0	
14	5	0	
14	6	0	
14	7	0	
14	8	0	
14	9	0	
14	10	0	
14	11	0	
14	12	0	
14	13	0	
14	14	0	
14	15	0	
14	16	0	
14	17	0	
14	18	0	
14	19	0	
14	20	0	
14	21	0	
14	22	0	
14	23	0	
14	24	0	
14	25	0	
14	26	0	
14	27	0	
14	28	0	
14	29	0	
14	30	0	
14	31	0	
14	32	0	
14	33	0	
14	34	0	
14	35	0	
14	36	0	
14	37	0	
14	38	0	
14	39	0	
14	40	0	
15	0	0	
15	1	0	
15	2	0	
15	3	0	
15	4	0	
15	5	0	
15	6	0	
15	7	0	
15	8	0	
15	9	0	
15	10	0	
15	11	0	
15	12	0	
15	13	0	
15	14	0	
15	15	0	
15	16	0	
15	17	0	
15	18	0	
15	19	0	
15	20	0	
15	21	0	
15	22	0	
15	23	0	
15	24	0	
15	25	0	
15	26	0	
15	27	0	
15	28	0	
15	29	0	
15	30	0	
15	31	0	
15	32	0	
15	33	0	
15	34	0	
15	35	0	
15	36	0	
15	37	0	
15	38	0	
15	39	0	
15	40	0	
16	0	0	
16	1	0	
16	2	0	
16	3	0	
16	4	0	
16	5	0	
16	6	0	
16	7	0	
16	8	0	
16	9	0	
16	10	0	
16	11	0	
16	12	0	
16	13	0	
16	14	0	
16	15	0	
16	16	0	
16	17	0	
16	18	0	
16	19	0	
16	20	0	
16	21	0	
16	22	0	
16	23	0	
16	24	0	
16	25	0	
16	26	0	
16	27	0	
16	28	0	
16	29	0	
16	30	0	
16	31	0	
16	32	0	
16	33	0	
16	34	0	
16	35	0	
16	36	0	
16	37	0	
16	38	0	
16	39	0	
16	40	0	
17	0	0	
17	1	0	
17	2	0	
17	3	0	
17	4	0	
17	5	0	
17	6	0	
17	7	0	
17	8	0	
17	9	0	
17	10	0	
17	11	0	
17	12	0	
17	13	0	
17	14	0	
17	15	0	
17	16	0	
17	17	0	
17	18	0	
17	19	0	
17	20	0	
17	21	0	
17	22	0	
17	23	0	
17	24	0	
17	25	0	
17	26	0	
17	27	0	
17	28	0	
17	29	0	
17	30	0	
17	31	0	
17	32	0	
17	33	0	
17	34	0	
17	35	0	
17	36	0	
17	37	0	
17	38	0	
17	39	0	
17	40	0	
18	0	0	
18	1	0	
18	2	0	
18	3	0	
18	4	0	
18	5	0	
18	6	0	
18	7	0	
18	8	0	
18	9	0	
18	10	0	
18	11	0	
18	12	0	
18	13	0	
18	14	0	
18	15	0	
18	16	0	
18	17	0	
18	18	0	
18	19	0	
18	20	0	
18	21	0	
18	22	0	
18	23	0	
18	24	0	
18	25	0	
18	26	0	
18	27	0	
18	28	0	
18	29	0	
18	30	0	
18	31	0	
18	32	0	
18	33	0	
18	34	0	
18	35	0	
18	36	0	
18	37	0	
18	38	0	
18	39	0	
18	40	0	
19	0	0	
19	1	0	
19	2	0	
19	3	0	
19	4	0	
19	5	0	
19	6	0	
19	7	0	
19	8	0	
19	9	0	
19	10	0	
19	11	0	
19	12	0	
19	13	0	
19	14	0	
19	15	0	
19	16	0	
19	17	0	
19	18	0	
19	19	0	
19	20	0	
19	21	0	
19	22	0	
19	23	0	
19	24	0	
19	25	0	
19	26	0	
19	27	0	
19	28	0	
19	29	0	
19	30	0	
19	31	0	
19	32	0	
19	33	0	
19	34	0	
19	35	0	
19	36	0	
19	37	0	
19	38	0	
19	39	0	
19	40	0	
20	0	0	
20	1	0	
20	2	0	
20	3	0	
20	4	0	
20	5	0	
20	6	0	
20	7	0	
20	8	0	
20	9	0	
20	10	0	
20	11	0	
20	12	0	
20	13	0	
20	14	0	
20	15	0	
20	16	0	
20	17	0	
20	18	0	
20	19	0	
20	20	0	
20	21	0	
20	22	0	
20	23	0	
20	24	0	
20	25	0	
20	26	0	
20	27	0	
20	28	0	
20	29	0	
20	30	0	
20	31	0	
20	32	0	
20	33	0	
20	34	0	
20	35	0	
20	36	0	
20	37	0	
20	38	0	
20	39	0	
20	40	0	
21	0	0	
21	1	0	
21	2	0	
21	3	0	
21	4	0	
21	5	0	
21	6	0	
21	7	0	
21	8	0	
21	9	0	
21	10	0	
21	11	0	
21	12	0	
21	13	0	
21	14	0	
21	15	0	
21	16	0	
21	17	0	
21	18	0	
21	19	0	
21	20	0	
21	21	0	
21	22	0	
21	23	0	
21	24	0	
21	25	0	
21	26	0	
21	27	0	
21	28	0	
21	29	0	
21	30	0	
21	31	0	
21	32	0	
21	33	0	
21	34	0	
21	35	0	
21	36	0	
21	37	0	
21	38	0	
21	39	0	
21	40	0	
22	0	0	
22	1	0	
22	2	0	
22	3	0	
22	4	0	
22	5	0	
22	6	0	
22	7	0	
22	8	0	
22	9	0	
22	10	0	
22	11	0	
22	12	0	
22	13	0	
22	14	0	
22	15	0	
22	16	0	
22	17	0	
22	18	0	
22	19	0	
22	20	0	
22	21	0	
22	22	0	
22	23	0	
22	24	0	
22	25	0	
22	26	0	
22	27	0	
22	28	0	
22	29	0	
22	30	0	
22	31	0	
22	32	0	
22	33	0	
22	34	0	
22	35	0	
22	36	0	
22	37	0	
22	38	0	
22	39	0	
22	40	0	
23	0	0	
23	1	0	
23	2	0	
23	3	0	
23	4	0	
23	5	0	
23	6	0	
23	7	0	
23	8	0	
23	9	0	
23	10	0	
23	11	0	
23	12	0	
23	13	0	
23	14	0	
23	15	0	
23	16	0	
23	17	0	
23	18	0	
23	19	0	
23	20	0	
23	21	0	
23	22	0	
23	23	0	
23	24	0	
23	25	0	
23	26	0	
23	27	0	
23	28	0	
23	29	0	
23	30	0	
23	31	0	
23	32	0	
23	33	0	
23	34	0	
23	35	0	
23	36	0	
23	37	0	
23	38	0	
23	39	0	
23	40	0	
24	0	0	
24	1	0	
24	2	0	
24	3	0	
24	4	0	
24	5	0	
24	6	0	
24	7	0	
24	8	0	
24	9	0	
24	10	0	
24	11	0	
24	12	0	
24	13	0	
24	14	0	
24	15	0	
24	16	0	
24	17	0	
24	18	0	
24	19	0	
24	20	0	
24	21	0	
24	22	0	
24	23	0	
24	24	0	
24	25	0	
24	26	0	
24	27	0	
24	28	0	
24	29	0	
24	30	0	
24	31	0	
24	32	0	
24	33	0	
24	34	0	
24	35	0	
24	36	0	
24	37	0	
24	38	0	
24	39	0	
24	40	0	
25	0	0	
25	1	0	
25	2	0	
25	3	0	
25	4	0	
25	5	0	
25	6	0	
25	7	0	
25	8	0	
25	9	0	
25	10	0	
25	11	0	
25	12	0	
25	13	0	
25	14	0	
25	15	0	
25	16	0	
25	17	0	
25	18	0	
25	19	0	
25	20	0	
25	21	0	
25	22	0	
25	23	0	
25	24	0	
25	25	0	
25	26	0	
25	27	0	
25	28	0	
25	29	0	
25	30	0	
25	31	0	
25	32	0	
25	33	0	
25	34	0	
25	35	0	
25	36	0	
25	37	0	
25	38	0	
25	39	0	
25	40	0	
26	0	0	
26	1	0	
26	2	0	
26	3	0	
26	4	0	
26	5	0	
26	6	0	
26	7	0	
26	8	0	
26	9	0	
26	10	0	
26	11	0	
26	12	0	
26	13	0	
26	14	0	
26	15	0	
26	16	0	
26	17	0	
26	18	0	
26	19	0	
26	20	0	
26	21	0	
26	22	0	
26	23	0	
26	24	0	
26	25	0	
26	26	0	
26	27	0	
26	28	0	
26	29	0	
26	30	0	
26	31	0	
26	32	0	
26	33	0	
26	34	0	
26	35	0	
26	36	0	
26	37	0	
26	38	0	
26	39	0	
26	40	0	
27	0	0	
27	1	0	
27	2	0	
27	3	0	
27	4	0	
27	5	0	
27	6	0	
27	7	0	
27	8	0	
27	9	0	
27	10	0	
27	11	0	
27	12	0	
27	13	0	
27	14	0	
27	15	0	
27	16	0	
27	17	0	
27	18	0	
27	19	0	
27	20	0	
27	21	0	
27	22	0	
27	23	0	
27	24	0	
27	25	0	
27	26	0	
27	27	0	
27	28	0	
27	29	0	
27	30	0	
27	31	0	
27	32	0	
27	33	0	
27	34	0	
27	35	0	
27	36	0	
27	37	0	
27	38	0	
27	39	0	
27	40	0	
28	0	0	
28	1	0	
28	2	0	
28	3	0	
28	4	0	
28	5	0	
28	6	0	
28	7	0	
28	8	0	
28	9	0	
28	10	0	
28	11	0	
28	12	0	
28	13	0	
28	14	0	
28	15	0	
28	16	0	
28	17	0	
28	18	0	
28	19	0	
28	20	0	
28	21	0	
28	22	0	
28	23	0	
28	24	0	
28	25	0	
28	26	0	
28	27	0	
28	28	0	
28	29	0	
28	30	0	
[...]
POINT_DATA	2501
VECTORS u float
0	0	0	
0	0	0	
0	0	0	
0	0	0	
0	0	0	
0	0	0	
0	0	0	
0	0	0	
0	0	0	
0	0	0	
0	0	0	
0	0	0	
0	0	0	
0	0	0	
0	0	0	
0	0	0	
0	0	0	
0	0	0	
0	0	0	
0	0	0	
0	0	0	
0	0	0	
0	0	0	
0	0	0	
0	0	0	
0	0	0	
0	0	0	
0	0	0	
0	0	0	
0	0	0	
0	0	0	
0	0	0	
0	0	0	
0	0	0	
0	0	0	
0	0	0	
0	0	0	
0	0	0	
0	0	0	
0	0	0	
0	0	0	
-0.0142452	-0.0131683	0	
-0.00840115	-0.00859203	0	
-0.00662613	-0.00674594	0	
-0.00544255	-0.0057861	0	
-0.00457506	-0.00518583	0	
-0.0038607	-0.00472786	0	
-0.00326928	-0.00426216	0	
-0.00193912	-0.00435581	0	
-0.000709628	-0.00488919	0	
-0.000884263	-0.00604753	0	
-0.00112382	-0.00700947	0	
-0.000682483	-0.00723457	0	
-0.000558966	-0.00734931	0	
-0.000447523	-0.00748241	0	
-0.000368206	-0.00755346	0	
-0.000301223	-0.00761491	0	
-0.000236864	-0.00767178	0	
-0.000167468	-0.00773042	0	
-0.000110653	-0.00776916	0	
-4.39723e-005	-0.00782253	0	
3.72703e-006	-0.00779982	0	
4.78438e-005	-0.00781207	0	
0.000108195	-0.00777036	0	
0.000167756	-0.00773197	0	
0.000238176	-0.00767459	0	
0.000299264	-0.00762108	0	
0.000363682	-0.00755914	0	
0.000439889	-0.00747835	0	
0.00054578	-0.00733592	0	
0.00067585	-0.00722388	0	
0.00111323	-0.00699427	0	
0.000881554	-0.00604002	0	
0.000712569	-0.00488716	0	
0.00193954	-0.00434755	0	
0.00326815	-0.00425582	0	
0.00385994	-0.00472408	0	
0.00457481	-0.00518282	0	
0.00544194	-0.00578362	0	
0.00662508	-0.00674361	0	
0.00839944	-0.00858948	0	
0.0142417	-0.0131647	0	
-0.0249139	-0.021803	0	
-0.0179811	-0.0180185	0	
-0.0138763	-0.0149805	0	
-0.0113427	-0.0131006	0	
-0.00945159	-0.011894	0	
-0.0079121	-0.0111128	0	
-0.00654505	-0.0106851	0	
-0.00470576	-0.0108127	0	
-0.00257029	-0.0114239	0	
-0.00153669	-0.012303	0	
-0.00123296	-0.0136354	0	
-0.00136646	-0.0144845	0	
-0.00104864	-0.0148834	0	
-0.00080247	-0.0150387	0	
-0.000633445	-0.0152266	0	
-0.000473305	-0.0153788	0	
-0.000330314	-0.0155139	0	
-0.000219892	-0.0156116	0	
-0.000128407	-0.0156803	0	
-5.98306e-005	-0.0157309	0	
2.76983e-006	-0.0157293	0	
6.58269e-005	-0.0157155	0	
0.000131512	-0.0156781	0	
0.000222023	-0.015615	0	
0.00033517	-0.0155172	0	
0.000475571	-0.0153795	0	
0.000620168	-0.0152191	0	
0.000774468	-0.0150152	0	
0.00103043	-0.0148636	0	
0.00135989	-0.0144605	0	
0.00122529	-0.0136117	0	
0.00154725	-0.0123002	0	
0.00256972	-0.0114069	0	
0.00470757	-0.0107946	0	
0.00654567	-0.0106733	0	
0.00791279	-0.0111053	0	
0.00945146	-0.0118884	0	
0.0113416	-0.0130955	0	
0.0138741	-0.0149753	0	
0.0179775	-0.0180128	0	
0.024908	-0.0217966	0	
-0.0339903	-0.0302085	0	
-0.0267071	-0.0266497	0	
-0.0213734	-0.0235818	0	
-0.0175006	-0.0212412	0	
-0.0145259	-0.0196265	0	
-0.0120385	-0.0185842	0	
-0.00982354	-0.0180038	0	
-0.00740219	-0.0179657	0	
-0.00465543	-0.0183466	0	
-0.00259778	-0.0192277	0	
-0.0015093	-0.0204199	0	
-0.0010267	-0.021723	0	
-0.0012692	-0.0225181	0	
-0.00096996	-0.0228668	0	
-0.00071069	-0.0230993	0	
-0.000498566	-0.0232893	0	
-0.000338084	-0.0234435	0	
-0.000221072	-0.023548	0	
-0.000130683	-0.0236139	0	
-5.79054e-005	-0.0236634	0	
9.84755e-007	-0.0236633	0	
6.30946e-005	-0.0236497	0	
0.00013944	-0.0236123	0	
0.000228179	-0.0235531	0	
0.000339254	-0.0234445	0	
0.000484138	-0.0232741	0	
0.000676812	-0.0230599	0	
0.00094101	-0.022838	0	
0.00126348	-0.0224916	0	
0.000986585	-0.0216725	0	
0.0015323	-0.0204009	0	
0.00259889	-0.0191949	0	
0.00465357	-0.0183088	0	
0.00740816	-0.017941	0	
0.00982833	-0.0179926	0	
0.0120409	-0.0185763	0	
0.0145257	-0.0196193	0	
0.0174986	-0.0212336	0	
0.0213699	-0.0235737	0	
0.0267019	-0.026641	0	
0.0339825	-0.0301991	0	
-0.0422649	-0.038452	0	
-0.0346934	-0.0351627	0	
-0.0285627	-0.0321911	0	
-0.023665	-0.0297582	0	
-0.0196581	-0.0279381	0	
-0.0162344	-0.0267097	0	
-0.0131564	-0.0260026	0	
-0.0101505	-0.0258032	0	
-0.00701898	-0.0260712	0	
-0.00415681	-0.026602	0	
-0.00230087	-0.0275119	0	
-0.00101915	-0.0288389	0	
-0.000649835	-0.0301672	0	
-0.000928646	-0.0307245	0	
-0.000682534	-0.0310994	0	
-0.000460802	-0.0312937	0	
-0.000318167	-0.0314034	0	
-0.000190628	-0.031514	0	
-0.000120808	-0.0315671	0	
-5.1054e-005	-0.0316154	0	
9.35869e-007	-0.0316126	0	
5.88903e-005	-0.03161	0	
0.000133246	-0.0315723	0	
0.0001952	-0.0315153	0	
0.00029954	-0.0313868	0	
0.000415742	-0.0312497	0	
0.000638455	-0.0310573	0	
0.000910388	-0.0306885	0	
0.000594372	-0.0301097	0	
0.00101934	-0.0287977	0	
0.00231833	-0.0274672	0	
0.00414584	-0.0265515	0	
0.00703674	-0.0260325	0	
0.0101673	-0.0257922	0	
0.0131643	-0.0259982	0	
0.0162361	-0.0267036	0	
0.0196565	-0.0279295	0	
0.0236615	-0.0297479	0	
0.0285579	-0.0321798	0	
0.0346869	-0.0351507	0	
0.0422558	-0.0384395	0	
-0.0499562	-0.0467934	0	
-0.0420956	-0.0437102	0	
-0.0353645	-0.0408831	0	
-0.0296536	-0.0384706	0	
-0.0247513	-0.036567	0	
-0.0204319	-0.0352119	0	
-0.0165001	-0.0343997	0	
-0.0128615	-0.0340677	0	
-0.00931575	-0.0342286	0	
-0.00605692	-0.0345531	0	
-0.00355059	-0.0351837	0	
-0.00169094	-0.0361343	0	
-0.000378045	-0.0374168	0	
-0.000207041	-0.0385806	0	
-0.000593158	-0.0389733	0	
-0.000391018	-0.0393315	0	
-0.00028141	-0.0394078	0	
-0.000171675	-0.0394725	0	
-8.87272e-005	-0.0395343	0	
-4.54497e-005	-0.0395632	0	
7.39371e-006	-0.0395753	0	
5.97014e-005	-0.0395643	0	
9.57077e-005	-0.0395419	0	
0.000157804	-0.0394538	0	
0.000229687	-0.0393621	0	
0.000325458	-0.0392742	0	
0.000556424	-0.0389267	0	
0.000148764	-0.0385299	0	
0.00036443	-0.037368	0	
0.00169976	-0.0360939	0	
0.00354191	-0.0351306	0	
0.00605352	-0.034504	0	
0.00937043	-0.0342164	0	
0.0128858	-0.0340806	0	
0.0165041	-0.0344023	0	
0.0204293	-0.0352051	0	
0.0247468	-0.0365554	0	
0.0296482	-0.0384567	0	
0.0353584	-0.0408681	0	
0.0420881	-0.0436946	0	
0.0499462	-0.0467776	0	
-0.0571906	-0.0553053	0	
-0.0490333	-0.0523936	0	
-0.0417996	-0.0497021	0	
-0.0354197	-0.0473461	0	
-0.0297498	-0.0454127	0	
-0.0246104	-0.0439515	0	
-0.0198826	-0.0429855	0	
-0.0155081	-0.0426012	0	
-0.0115789	-0.0427218	0	
-0.00822047	-0.0429246	0	
-0.00518205	-0.0432422	0	
-0.00277344	-0.0438825	0	
-0.000991956	-0.0448538	0	
0.000214044	-0.0459935	0	
0.00012162	-0.046758	0	
-0.000353573	-0.0471393	0	
-0.000200748	-0.0474596	0	
-0.000166737	-0.0474524	0	
-6.85219e-005	-0.0474893	0	
-2.5771e-005	-0.0475199	0	
1.37785e-005	-0.0475301	0	
4.20601e-005	-0.0475185	0	
5.90453e-005	-0.0474781	0	
0.000113687	-0.0474032	0	
0.000113748	-0.0473833	0	
0.000298012	-0.04708	0	
-0.000180561	-0.0467218	0	
-0.000240751	-0.0459343	0	
0.00100292	-0.0448049	0	
0.00276867	-0.0438258	0	
0.00516738	-0.0431895	0	
0.00825253	-0.0429142	0	
0.0116706	-0.0427573	0	
0.0155155	-0.042632	0	
0.0198698	-0.042983	0	
0.0246027	-0.0439365	0	
0.0297425	-0.0453954	0	
0.0354126	-0.0473275	0	
0.0417925	-0.0496833	0	
0.0490254	-0.0523745	0	
0.0571805	-0.0552863	0	
-0.0640496	-0.0640306	0	
-0.0555907	-0.0612623	0	
-0.0479141	-0.0586867	0	
-0.0409678	-0.0563925	0	
-0.0346347	-0.0544516	0	
-0.0287981	-0.052891	0	
-0.0233326	-0.0517547	0	
-0.0181239	-0.0513192	0	
-0.0139309	-0.0513506	0	
-0.0104157	-0.0514901	0	
-0.00713769	-0.0516969	0	
-0.00426093	-0.05203	0	
-0.00199392	-0.0526079	0	
-0.000355883	-0.0534706	0	
0.000621488	-0.0544114	0	
0.000252789	-0.0548034	0	
-0.000135853	-0.0552443	0	
-0.000116224	-0.0554835	0	
-8.70321e-005	-0.055451	0	
-4.30675e-006	-0.0554755	0	
1.4272e-005	-0.0554686	0	
1.1987e-005	-0.055453	0	
3.71674e-005	-0.055398	0	
1.2287e-005	-0.0553953	0	
6.54264e-005	-0.055165	0	
-0.000313605	-0.0547668	0	
-0.000672196	-0.0543416	0	
0.000365133	-0.0534048	0	
0.00200447	-0.05254	0	
0.00423852	-0.0519716	0	
0.00715256	-0.0516784	0	
0.0104842	-0.0515128	0	
0.0140049	-0.0513827	0	
0.0180797	-0.0513251	0	
0.0233071	-0.0517341	0	
0.0287928	-0.052861	0	
0.0346258	-0.0544268	0	
0.0409601	-0.0563698	0	
0.0479066	-0.0586645	0	
0.0555829	-0.0612403	0	
0.0640403	-0.0640089	0	
-0.0705926	-0.0730106	0	
-0.0618342	-0.0703519	0	
-0.0537584	-0.0678601	0	
-0.0463128	-0.0656154	0	
-0.0394172	-0.0636756	0	
-0.0329764	-0.0620625	0	
-0.0268279	-0.0608772	0	
-0.0209202	-0.0603393	0	
-0.0164523	-0.0601748	0	
-0.0126175	-0.0601736	0	
-0.00922935	-0.0603049	0	
-0.00607509	-0.0605064	0	
-0.00333989	-0.0608186	0	
-0.00129354	-0.0612785	0	
0.000117763	-0.0619138	0	
0.000827435	-0.0625835	0	
0.000321466	-0.0627935	0	
1.66967e-005	-0.0632871	0	
-7.61607e-005	-0.0634524	0	
-2.43112e-005	-0.0634213	0	
3.03008e-006	-0.0633992	0	
-4.9578e-006	-0.0633499	0	
-2.41947e-005	-0.0633485	0	
-0.000109666	-0.0631955	0	
-0.000389971	-0.0627493	0	
-0.000904797	-0.0625144	0	
-0.000121942	-0.0618353	0	
0.00132024	-0.0611941	0	
0.00331935	-0.0607527	0	
0.00607173	-0.0604803	0	
0.00928307	-0.0603187	0	
0.0126958	-0.0602087	0	
0.016478	-0.0601858	0	
0.0208773	-0.0603166	0	
0.0268187	-0.0608596	0	
0.0329821	-0.0620322	0	
0.03941	-0.0636507	0	
0.0463045	-0.0655909	0	
0.0537511	-0.067836	0	
0.0618268	-0.0703279	0	
0.0705846	-0.0729869	0	
-0.0768617	-0.0822087	0	
-0.067829	-0.0796399	0	
-0.0593891	-0.0772325	0	
-0.0514957	-0.0750425	0	
-0.0440903	-0.0731161	0	
-0.0370926	-0.0715118	0	
-0.0303315	-0.0703655	0	
-0.0239641	-0.0696402	0	
-0.0190946	-0.0692197	0	
-0.0149359	-0.0690242	0	
-0.0113529	-0.0690108	0	
-0.00807205	-0.069129	0	
-0.00504671	-0.0693115	0	
-0.00247936	-0.0695394	0	
-0.000710215	-0.0698118	0	
0.000440267	-0.0702012	0	
0.0008767	-0.0705817	0	
0.000392413	-0.0707569	0	
9.72127e-005	-0.0712754	0	
-6.79961e-005	-0.0713868	0	
-3.92594e-005	-0.0713003	0	
-2.43116e-005	-0.0712676	0	
-0.000193019	-0.0711469	0	
-0.000466862	-0.0706892	0	
-0.000981788	-0.0705203	0	
-0.00046324	-0.0701226	0	
0.000754833	-0.069715	0	
0.00246863	-0.0694608	0	
0.00502269	-0.0692825	0	
0.00811173	-0.0691425	0	
0.0114343	-0.069046	0	
0.014989	-0.0690365	0	
0.019072	-0.0691883	0	
0.0239593	-0.0696165	0	
0.0303368	-0.0703668	0	
0.037093	-0.0714899	0	
0.044082	-0.0730888	0	
0.0514868	-0.075015	0	
0.059382	-0.0772059	0	
0.0678222	-0.0796143	0	
0.0768553	-0.0821838	0	
-0.0829063	-0.0916548	0	
-0.0736064	-0.0891667	0	
-0.0648198	-0.0868293	0	
-0.056518	-0.0846883	0	
-0.0486504	-0.0827877	0	
-0.0411168	-0.0812357	0	
-0.0338396	-0.0801202	0	
-0.0272152	-0.0792131	0	
-0.0218386	-0.0785049	0	
-0.0174046	-0.078088	0	
-0.0135523	-0.0778543	0	
-0.0101315	-0.0778294	0	
-0.00696705	-0.0779276	0	
-0.00407273	-0.0780669	0	
-0.00172594	-0.078142	0	
-0.000274466	-0.0781622	0	
0.000634616	-0.0783377	0	
0.000870394	-0.0785315	0	
0.000453502	-0.0786908	0	
5.67411e-005	-0.0791496	0	
-9.99355e-005	-0.0792832	0	
-0.00021317	-0.0790401	0	
-0.000507961	-0.078573	0	
-0.000960112	-0.0784447	0	
-0.000678446	-0.0782692	0	
0.000319428	-0.0780622	0	
0.00174004	-0.0780424	0	
0.00403098	-0.0780394	0	
0.00698302	-0.0779431	0	
0.0102078	-0.077862	0	
0.0136253	-0.0778648	0	
0.0174173	-0.0780558	0	
0.0218091	-0.0784644	0	
0.0272434	-0.079211	0	
0.0338292	-0.0801199	0	
0.0410996	-0.081209	0	
0.0486375	-0.082759	0	
0.0565095	-0.0846613	0	
0.0648133	-0.0868042	0	
0.0736009	-0.0891425	0	
0.082902	-0.0916314	0	
-0.0887444	-0.101331	0	
-0.0791775	-0.0989278	0	
-0.0700691	-0.0966604	0	
-0.0613916	-0.0945683	0	
-0.053092	-0.0927009	0	
-0.0450574	-0.0911856	0	
-0.0373549	-0.0900663	0	
-0.030633	-0.0890478	0	
-0.0247072	-0.0880633	0	
-0.0199618	-0.0873616	0	
-0.0158807	-0.0869009	0	
-0.0122529	-0.0866465	0	
-0.00897352	-0.0866044	0	
-0.00592949	-0.0866712	0	
-0.00317993	-0.0867284	0	
-0.00112386	-0.0865682	0	
9.91688e-006	-0.0863247	0	
0.000724686	-0.0863494	0	
0.000836818	-0.0864573	0	
0.000478489	-0.0865906	0	
-0.000144762	-0.0868479	0	
-0.000669927	-0.0865651	0	
-0.000930036	-0.0863718	0	
-0.000735321	-0.0862405	0	
4.41274e-005	-0.0862166	0	
0.00117419	-0.0864433	0	
0.00312534	-0.086701	0	
0.00591505	-0.0866925	0	
0.00903461	-0.0866416	0	
0.0123421	-0.0866595	0	
0.0159259	-0.0868606	0	
0.019941	-0.0873108	0	
0.0247011	-0.0880546	0	
0.0306691	-0.0890508	0	
0.0373123	-0.0900503	0	
0.0450285	-0.0911477	0	
0.0530797	-0.092672	0	
0.0613845	-0.094545	0	
0.0700634	-0.0966387	0	
0.0791726	-0.0989065	0	
0.0887414	-0.10131	0	
-0.0943907	-0.111259	0	
-0.0845603	-0.108934	0	
-0.0751524	-0.106732	0	
-0.0661275	-0.104685	0	
-0.0574251	-0.102854	0	
-0.0489478	-0.101334	0	
-0.0408604	-0.100148	0	
-0.0340749	-0.0990607	0	
-0.0277791	-0.0979515	0	
-0.0225793	-0.0968809	0	
-0.0182946	-0.0961358	0	
-0.0144813	-0.0956569	0	
-0.0110371	-0.0953834	0	
-0.00789042	-0.0953123	0	
-0.00497909	-0.0953265	0	
-0.00240481	-0.0952442	0	
-0.000717651	-0.0947548	0	
0.000116826	-0.0942704	0	
0.000576389	-0.0941236	0	
0.000497196	-0.0940641	0	
-0.000142556	-0.0939122	0	
-0.000760471	-0.0941308	0	
-0.000694749	-0.094118	0	
-7.28024e-005	-0.0941844	0	
0.000821786	-0.0945861	0	
0.00234812	-0.0952002	0	
0.00492875	-0.0953605	0	
0.00792662	-0.0953645	0	
0.0111319	-0.0954033	0	
0.014554	-0.095608	0	
0.0183093	-0.0960684	0	
0.022544	-0.0968584	0	
0.0278047	-0.0979627	0	
0.0340899	-0.0990558	0	
0.0407978	-0.100112	0	
0.0489239	-0.101296	0	
0.0574186	-0.102833	0	
0.0661221	-0.104668	0	
0.0751468	-0.106714	0	
0.0845556	-0.108916	0	
0.094388	-0.111241	0	
-0.099851	-0.121436	0	
-0.0897705	-0.119186	0	
-0.0800862	-0.117044	0	
-0.0707433	-0.115035	0	
-0.06167	-0.113224	0	
-0.0528173	-0.11169	0	
-0.0444407	-0.1104	0	
-0.0374589	-0.109198	0	
-0.0310163	-0.108038	0	
-0.0253126	-0.106765	0	
-0.0207511	-0.105587	0	
-0.016784	-0.10484	0	
-0.013187	-0.104346	0	
-0.00991062	-0.104048	0	
-0.00689851	-0.103927	0	
-0.00414447	-0.103841	0	
-0.00180746	-0.103507	0	
-0.000612538	-0.102576	0	
-7.31013e-005	-0.101881	0	
0.000185532	-0.101653	0	
-0.000118951	-0.101352	0	
-0.000386372	-0.101721	0	
-5.18598e-005	-0.101988	0	
0.000669555	-0.102486	0	
0.00176681	-0.10344	0	
0.00405148	-0.103902	0	
0.00690304	-0.104006	0	
0.00999338	-0.104083	0	
0.0132858	-0.104297	0	
0.0168415	-0.104753	0	
0.0207204	-0.105529	0	
0.0252903	-0.10679	0	
0.031071	-0.108047	0	
0.0374413	-0.109177	0	
0.044377	-0.110358	0	
0.0528145	-0.111666	0	
0.0616704	-0.113212	0	
0.0707379	-0.115022	0	
0.08008	-0.117029	0	
0.0897654	-0.11917	0	
0.0998481	-0.121421	0	
-0.105129	-0.131848	0	
-0.0948184	-0.129669	0	
-0.0848842	-0.127586	0	
-0.0752596	-0.125612	0	
-0.065856	-0.123796	0	
-0.0566762	-0.122218	0	
-0.0481023	-0.120841	0	
-0.0408281	-0.119464	0	
-0.034293	-0.118212	0	
-0.0282486	-0.116941	0	
-0.0232199	-0.115393	0	
-0.0191322	-0.114206	0	
-0.0154034	-0.113486	0	
-0.0119874	-0.112959	0	
-0.00887911	-0.112615	0	
-0.00603105	-0.112409	0	
-0.00347425	-0.112124	0	
-0.00156184	-0.111292	0	
-0.000809175	-0.110041	0	
-0.000335037	-0.109406	0	
-7.24568e-005	-0.109217	0	
0.0002046	-0.109523	0	
0.000729973	-0.110129	0	
0.00152981	-0.111231	0	
0.0033401	-0.112214	0	
0.0059852	-0.112522	0	
0.00893763	-0.112679	0	
0.0121041	-0.112925	0	
0.0154995	-0.113381	0	
0.0191454	-0.114098	0	
0.0231524	-0.115402	0	
0.0282903	-0.116982	0	
0.0343265	-0.118194	0	
0.0407847	-0.119414	0	
0.048051	-0.120815	0	
0.0566799	-0.122209	0	
0.0658561	-0.123787	0	
0.0752531	-0.125602	0	
0.0848767	-0.127574	0	
0.0948125	-0.129656	0	
0.105126	-0.131834	0	
-0.110228	-0.142472	0	
-0.0997112	-0.140364	0	
-0.0895566	-0.138338	0	
-0.0796921	-0.136399	0	
-0.0700237	-0.134567	0	
-0.0605599	-0.132902	0	
-0.0517784	-0.13144	0	
-0.04427	-0.12991	0	
-0.0375266	-0.128481	0	
-0.0313722	-0.127173	0	
-0.0257942	-0.125654	0	
-0.021454	-0.123856	0	
-0.0176503	-0.122779	0	
-0.0141289	-0.122074	0	
-0.0108839	-0.12149	0	
-0.0079528	-0.121045	0	
-0.00533796	-0.120668	0	
-0.00309477	-0.119942	0	
-0.00175353	-0.118489	0	
-0.000811025	-0.117724	0	
-1.96674e-005	-0.117484	0	
0.000761557	-0.117772	0	
0.00164745	-0.118557	0	
0.00297836	-0.11999	0	
0.00522427	-0.120822	0	
0.00798163	-0.121163	0	
0.0110017	-0.121483	0	
0.0142554	-0.12196	0	
0.017724	-0.122634	0	
0.0213945	-0.123773	0	
0.0257666	-0.125743	0	
0.0314445	-0.127166	0	
0.0375253	-0.128422	0	
0.0442224	-0.12986	0	
0.0517431	-0.131433	0	
0.0605556	-0.132901	0	
0.0700183	-0.134562	0	
0.0796829	-0.136391	0	
0.0895472	-0.138329	0	
0.0997043	-0.140354	0	
0.110225	-0.142462	0	
-0.115152	-0.153283	0	
-0.104455	-0.151244	0	
-0.0941107	-0.149273	0	
-0.0840499	-0.147366	0	
-0.0741868	-0.145522	0	
-0.0645013	-0.143758	0	
-0.0554239	-0.14217	0	
-0.0477826	-0.140523	0	
-0.0407786	-0.138898	0	
-0.0345161	-0.137434	0	
-0.0286504	-0.136035	0	
-0.0237149	-0.134055	0	
-0.0198915	-0.132298	0	
-0.0162757	-0.13134	0	
-0.0129201	-0.130609	0	
-0.00987701	-0.129923	0	
-0.00715807	-0.129289	0	
-0.0048272	-0.128575	0	
-0.00286097	-0.127393	0	
-0.00133173	-0.126529	0	
7.52904e-007	-0.126255	0	
0.00127397	-0.126551	0	
0.00278984	-0.12739	0	
0.00467941	-0.128709	0	
0.00715642	-0.129459	0	
0.00997719	-0.129943	0	
0.0130648	-0.130502	0	
0.016413	-0.131169	0	
0.0198734	-0.132108	0	
0.0236118	-0.134139	0	
0.0287253	-0.136073	0	
0.0345654	-0.137368	0	
0.0407575	-0.138805	0	
0.0477354	-0.140496	0	
0.0553998	-0.142173	0	
0.0644928	-0.143764	0	
0.0741745	-0.14552	0	
0.0840366	-0.147359	0	
0.0940992	-0.149266	0	
0.104447	-0.151239	0	
0.115149	-0.153278	0	
-0.119904	-0.164257	0	
-0.109053	-0.162284	0	
-0.098552	-0.16036	0	
-0.0883357	-0.158478	0	
-0.0783348	-0.15663	0	
-0.0684926	-0.1548	0	
-0.0590663	-0.153059	0	
-0.0513071	-0.151238	0	
-0.0441087	-0.149504	0	
-0.0376181	-0.1478	0	
-0.031705	-0.14632	0	
-0.0261803	-0.144656	0	
-0.0219858	-0.142245	0	
-0.0184023	-0.140827	0	
-0.0149544	-0.139919	0	
-0.011757	-0.139094	0	
-0.00892201	-0.138249	0	
-0.00638745	-0.137433	0	
-0.00403288	-0.136624	0	
-0.00186221	-0.135862	0	
-2.79337e-005	-0.13562	0	
0.00182736	-0.135861	0	
0.00391994	-0.136705	0	
0.006328	-0.137612	0	
0.00900775	-0.138307	0	
0.0119265	-0.139013	0	
0.015128	-0.139746	0	
0.0184534	-0.140606	0	
0.0218685	-0.142165	0	
0.0262071	-0.144768	0	
0.0318015	-0.146249	0	
0.037648	-0.147668	0	
0.0440805	-0.149425	0	
0.05126	-0.151222	0	
0.0590538	-0.153072	0	
0.0684735	-0.15481	0	
0.0783137	-0.156628	0	
0.088318	-0.158475	0	
0.0985385	-0.160359	0	
0.109044	-0.162284	0	
0.119901	-0.164257	0	
-0.124489	-0.175369	0	
-0.113511	-0.173459	0	
-0.102885	-0.171573	0	
-0.0925489	-0.169707	0	
-0.0824429	-0.167859	0	
-0.0724877	-0.166009	0	
-0.062759	-0.164152	0	
-0.0547951	-0.162044	0	
-0.0475084	-0.160227	0	
-0.0407606	-0.158352	0	
-0.0347231	-0.156629	0	
-0.0290532	-0.155077	0	
-0.0240845	-0.152834	0	
-0.0203605	-0.150718	0	
-0.0169381	-0.149419	0	
-0.0136285	-0.148513	0	
-0.0105946	-0.147595	0	
-0.00779521	-0.146675	0	
-0.00514203	-0.146111	0	
-0.00236457	-0.145799	0	
1.79171e-005	-0.145473	0	
0.00233517	-0.145805	0	
0.00500167	-0.146284	0	
0.00788207	-0.14684	0	
0.0107567	-0.147544	0	
0.0138273	-0.148342	0	
0.0170937	-0.149166	0	
0.0202078	-0.150549	0	
0.0240496	-0.152944	0	
0.0291821	-0.155012	0	
0.0348076	-0.156472	0	
0.0407885	-0.158196	0	
0.0474645	-0.160158	0	
0.0547546	-0.162044	0	
0.0627653	-0.164168	0	
0.0724516	-0.166013	0	
0.0824121	-0.167858	0	
0.0925292	-0.16971	0	
0.10287	-0.17158	0	
0.113501	-0.173467	0	
0.124484	-0.175376	0	
-0.128904	-0.186594	0	
-0.117832	-0.184745	0	
-0.107117	-0.182887	0	
-0.0966893	-0.181025	0	
-0.0864925	-0.179183	0	
-0.0764542	-0.177345	0	
-0.066533	-0.175443	0	
-0.0582541	-0.172987	0	
-0.0509334	-0.170988	0	
-0.0439855	-0.169104	0	
-0.0377092	-0.167092	0	
-0.0320285	-0.165362	0	
-0.0266202	-0.163511	0	
-0.0222472	-0.160963	0	
-0.0188201	-0.159307	0	
-0.0154629	-0.158118	0	
-0.0121968	-0.157209	0	
-0.00921616	-0.156383	0	
-0.00622595	-0.155702	0	
-0.00339134	-0.15554	0	
-9.17259e-005	-0.155618	0	
0.00313261	-0.155813	0	
0.00638387	-0.155879	0	
0.00937326	-0.156318	0	
0.0124881	-0.157039	0	
0.0156893	-0.157809	0	
0.0187402	-0.159042	0	
0.0222108	-0.160935	0	
0.0267408	-0.163459	0	
0.0321686	-0.165175	0	
0.0378012	-0.166864	0	
0.0439859	-0.168939	0	
0.0508811	-0.170934	0	
0.0582311	-0.173017	0	
0.0665324	-0.175436	0	
0.0764134	-0.177343	0	
0.0864627	-0.17919	0	
0.0966683	-0.181038	0	
0.1071	-0.182903	0	
0.117819	-0.184762	0	
0.128897	-0.18661	0	
-0.133144	-0.197908	0	
-0.122016	-0.196119	0	
-0.111258	-0.19428	0	
-0.100761	-0.192412	0	
-0.0904748	-0.190576	0	
-0.0803766	-0.188762	0	
-0.0703842	-0.186854	0	
-0.0617202	-0.184134	0	
-0.054328	-0.181813	0	
-0.0472889	-0.179913	0	
-0.0407338	-0.177819	0	
-0.0349127	-0.175754	0	
-0.0294383	-0.174005	0	
-0.0244539	-0.171702	0	
-0.020463	-0.169543	0	
-0.0172397	-0.16799	0	
-0.0138973	-0.167003	0	
-0.0105847	-0.166182	0	
-0.00767981	-0.165416	0	