# vtk DataFile Version 4.1
vtk output
ASCII
DATASET UNSTRUCTURED_GRID

POINTS	2501	float
0	0	0	
0	1	0	
0	2	0	
0	3	0	
0	4	0	
0	5	0	
0	6	0	
0	7	0	
0	8	0	
0	9	0	
0	10	0	
0	11	0	
0	12	0	
0	13	0	
0	14	0	
0	15	0	
0	16	0	
0	17	0	
0	18	0	
0	19	0	
0	20	0	
0	21	0	
0	22	0	
0	23	0	
0	24	0	
0	25	0	
0	26	0	
0	27	0	
0	28	0	
0	29	0	
0	30	0	
0	31	0	
0	32	0	
0	33	0	
0	34	0	
0	35	0	
0	36	0	
0	37	0	
0	38	0	
0	39	0	
0	40	0	
1	0	0	
1	1	0	
1	2	0	
1	3	0	
1	4	0	
1	5	0	
1	6	0	
1	7	0	
1	8	0	
1	9	0	
1	10	0	
1	11	0	
1	12	0	
1	13	0	
1	14	0	
1	15	0	
1	16	0	
1	17	0	
1	18	0	
1	19	0	
1	20	0	
1	21	0	
1	22	0	
1	23	0	
1	24	0	
1	25	0	
1	26	0	
1	27	0	
1	28	0	
1	29	0	
1	30	0	
1	31	0	
1	32	0	
1	33	0	
1	34	0	
1	35	0	
1	36	0	
1	37	0	
1	38	0	
1	39	0	
1	40	0	
2	0	0	
2	1	0	
2	2	0	
2	3	0	
2	4	0	
2	5	0	
2	6	0	
2	7	0	
2	8	0	
2	9	0	
2	10	0	
2	11	0	
2	12	0	
2	13	0	
2	14	0	
2	15	0	
2	16	0	
2	17	0	
2	18	0	
2	19	0	
2	20	0	
2	21	0	
2	22	0	
2	23	0	
2	24	0	
2	25	0	
2	26	0	
2	27	0	
2	28	0	
2	29	0	
2	30	0	
2	31	0	
2	32	0	
2	33	0	
2	34	0	
2	35	0	
2	36	0	
2	37	0	
2	38	0	
2	39	0	
2	40	0	
3	0	0	
3	1	0	
3	2	0	
3	3	0	
3	4	0	
3	5	0	
3	6	0	
3	7	0	
3	8	0	
3	9	0	
3	10	0	
3	11	0	
3	12	0	
3	13	0	
3	14	0	
3	15	0	
3	16	0	
3	17	0	
3	18	0	
3	19	0	
3	20	0	
3	21	0	
3	22	0	
3	23	0	
3	24	0	
3	25	0	
3	26	0	
3	27	0	
3	28	0	
3	29	0	
3	30	0	
3	31	0	
3	32	0	
3	33	0	
3	34	0	
3	35	0	
3	36	0	
3	37	0	
3	38	0	
3	39	0	
3	40	0	
4	0	0	
4	1	0	
4	2	0	
4	3	0	
4	4	0	
4	5	0	
4	6	0	
4	7	0	
4	8	0	
4	9	0	
4	10	0	
4	11	0	
4	12	0	
4	13	0	
4	14	0	
4	15	0	
4	16	0	
4	17	0	
4	18	0	
4	19	0	
4	20	0	
4	21	0	
4	22	0	
4	23	0	
4	24	0	
4	25	0	
4	26	0	
4	27	0	
4	28	0	
4	29	0	
4	30	0	
4	31	0	
4	32	0	
4	33	0	
4	34	0	
4	35	0	
4	36	0	
4	37	0	
4	38	0	
4	39	0	
4	40	0	
5	0	0	
5	1	0	
5	2	0	
5	3	0	
5	4	0	
5	5	0	
5	6	0	
5	7	0	
5	8	0	
5	9	0	
5	10	0	
5	11	0	
5	12	0	
5	13	0	
5	14	0	
5	15	0	
5	16	0	
5	17	0	
5	18	0	
5	19	0	
5	20	0	
5	21	0	
5	22	0	
5	23	0	
5	24	0	
5	25	0	
5	26	0	
5	27	0	
5	28	0	
5	29	0	
5	30	0	
5	31	0	
5	32	0	
5	33	0	
5	34	0	
5	35	0	
5	36	0	
5	37	0	
5	38	0	
5	39	0	
5	40	0	
6	0	0	
6	1	0	
6	2	0	
6	3	0	
6	4	0	
6	5	0	
6	6	0	
6	7	0	
6	8	0	
6	9	0	
6	10	0	
6	11	0	
6	12	0	
6	13	0	
6	14	0	
6	15	0	
6	16	0	
6	17	0	
6	18	0	
6	19	0	
6	20	0	
6	21	0	
6	22	0	
6	23	0	
6	24	0	
6	25	0	
6	26	0	
6	27	0	
6	28	0	
6	29	0	
6	30	0	
6	31	0	
6	32	0	
6	33	0	
6	34	0	
6	35	0	
6	36	0	
6	37	0	
6	38	0	
6	39	0	
6	40	0	
7	0	0	
7	1	0	
7	2	0	
7	3	0	
7	4	0	
7	5	0	
7	6	0	
7	7	0	
7	8	0	
7	9	0	
7	10	0	
7	11	0	
7	12	0	
7	13	0	
7	14	0	
7	15	0	
7	16	0	
7	17	0	
7	18	0	
7	19	0	
7	20	0	
7	21	0	
7	22	0	
7	23	0	
7	24	0	
7	25	0	
7	26	0	
7	27	0	
7	28	0	
7	29	0	
7	30	0	
7	31	0	
7	32	0	
7	33	0	
7	34	0	
7	35	0	
7	36	0	
7	37	0	
7	38	0	
7	39	0	
7	40	0	
8	0	0	
8	1	0	
8	2	0	
8	3	0	
8	4	0	
8	5	0	
8	6	0	
8	7	0	
8	8	0	
8	9	0	
8	10	0	
8	11	0	
8	12	0	
8	13	0	
8	14	0	
8	15	0	
8	16	0	
8	17	0	
8	18	0	
8	19	0	
8	20	0	
8	21	0	
8	22	0	
8	23	0	
8	24	0	
8	25	0	
8	26	0	
8	27	0	
8	28	0	
8	29	0	
8	30	0	
8	31	0	
8	32	0	
8	33	0	
8	34	0	
8	35	0	
8	36	0	
8	37	0	
8	38	0	
8	39	0	
8	40	0	
9	0	0	
9	1	0	
9	2	0	
9	3	0	
9	4	0	
9	5	0	
9	6	0	
9	7	0	
9	8	0	
9	9	0	
9	10	0	
9	11	0	
9	12	0	
9	13	0	
9	14	0	
9	15	0	
9	16	0	
9	17	0	
9	18	0	
9	19	0	
9	20	0	
9	21	0	
9	22	0	
9	23	0	
9	24	0	
9	25	0	
9	26	0	
9	27	0	
9	28	0	
9	29	0	
9	30	0	
9	31	0	
9	32	0	
9	33	0	
9	34	0	
9	35	0	
9	36	0	
9	37	0	
9	38	0	
9	39	0	
9	40	0	
10	0	0	
10	1	0	
10	2	0	
10	3	0	
10	4	0	
10	5	0	
10	6	0	
10	7	0	
10	8	0	
10	9	0	
10	10	0	
10	11	0	
10	12	0	
10	13	0	
10	14	0	
10	15	0	
10	16	0	
10	17	0	
10	18	0	
10	19	0	
10	20	0	
10	21	0	
10	22	0	
10	23	0	
10	24	0	
10	25	0	
10	26	0	
10	27	0	
10	28	0	
10	29	0	
10	30	0	
10	31	0	
10	32	0	
10	33	0	
10	34	0	
10	35	0	
10	36	0	
10	37	0	
10	38	0	
10	39	0	
10	40	0	
11	0	0	
11	1	0	
11	2	0	
11	3	0	
11	4	0	
11	5	0	
11	6	0	
11	7	0	
11	8	0	
11	9	0	
11	10	0	
11	11	0	
11	12	0	
11	13	0	
11	14	0	
11	15	0	
11	16	0	
11	17	0	
11	18	0	
11	19	0	
11	20	0	
11	21	0	
11	22	0	
11	23	0	
11	24	0	
11	25	0	
11	26	0	
11	27	0	
11	28	0	
11	29	0	
11	30	0	
11	31	0	
11	32	0	
11	33	0	
11	34	0	
11	35	0	
11	36	0	
11	37	0	
11	38	0	
11	39	0	
11	40	0	
12	0	0	
12	1	0	
12	2	0	
12	3	0	
12	4	0	
12	5	0	
12	6	0	
12	7	0	
12	8	0	
12	9	0	
12	10	0	
12	11	0	
12	12	0	
12	13	0	
12	14	0	
12	15	0	
12	16	0	
12	17	0	
12	18	0	
12	19	0	
12	20	0	
12	21	0	
12	22	0	
12	23	0	
12	24	0	
12	25	0	
12	26	0	
12	27	0	
12	28	0	
12	29	0	
12	30	0	
12	31	0	
12	32	0	
12	33	0	
12	34	0	
12	35	0	
12	36	0	
12	37	0	
12	38	0	
12	39	0	
12	40	0	
13	0	0	
13	1	0	
13	2	0	
13	3	0	
13	4	0	
13	5	0	
13	6	0	
13	7	0	
13	8	0	
13	9	0	
13	10	0	
13	11	0	
13	12	0	
13	13	0	
13	14	0	
13	15	0	
13	16	0	
13	17	0	
13	18	0	
13	19	0	
13	20	0	
13	21	0	
13	22	0	
13	23	0	
13	24	0	
13	25	0	
13	26	0	
13	27	0	
13	28	0	
13	29	0	
13	30	0	
13	31	0	
13	32	0	
13	33	0	
13	34	0	
13	35	0	
13	36	0	
13	37	0	
13	38	0	
13	39	0	
13	40	0	
14	0	0	
14	1	0	
14	2	0	
14	3	0	
14	4	0	
14	5	0	
14	6	0	
14	7	0	
14	8	0	
14	9	0	
14	10	0	
14	11	0	
14	12	0	
14	13	0	
14	14	0	
14	15	0	
14	16	0	
14	17	0	
14	18	0	
14	19	0	
14	20	0	
14	21	0	
14	22	0	
14	23	0	
14	24	0	
14	25	0	
14	26	0	
14	27	0	
14	28	0	
14	29	0	
14	30	0	
14	31	0	
14	32	0	
14	33	0	
14	34	0	
14	35	0	
14	36	0	
14	37	0	
14	38	0	
14	39	0	
14	40	0	
15	0	0	
15	1	0	
15	2	0	
15	3	0	
15	4	0	
15	5	0	
15	6	0	
15	7	0	
15	8	0	
15	9	0	
15	10	0	
15	11	0	
15	12	0	
15	13	0	
15	14	0	
15	15	0	
15	16	0	
15	17	0	
15	18	0	
15	19	0	
15	20	0	
15	21	0	
15	22	0	
15	23	0	
15	24	0	
15	25	0	
15	26	0	
15	27	0	
15	28	0	
15	29	0	
15	30	0	
15	31	0	
15	32	0	
15	33	0	
15	34	0	
15	35	0	
15	36	0	
15	37	0	
15	38	0	
15	39	0	
15	40	0	
16	0	0	
16	1	0	
16	2	0	
16	3	0	
16	4	0	
16	5	0	
16	6	0	
16	7	0	
16	8	0	
16	9	0	
16	10	0	
16	11	0	
16	12	0	
16	13	0	
16	14	0	
16	15	0	
16	16	0	
16	17	0	
16	18	0	
16	19	0	
16	20	0	
16	21	0	
16	22	0	
16	23	0	
16	24	0	
16	25	0	
16	26	0	
16	27	0	
16	28	0	
16	29	0	
16	30	0	
16	31	0	
16	32	0	
16	33	0	
16	34	0	
16	35	0	
16	36	0	
16	37	0	
16	38	0	
16	39	0	
16	40	0	
17	0	0	
17	1	0	
17	2	0	
17	3	0	
17	4	0	
17	5	0	
17	6	0	
17	7	0	
17	8	0	
17	9	0	
17	10	0	
17	11	0	
17	12	0	
17	13	0	
17	14	0	
17	15	0	
17	16	0	
17	17	0	
17	18	0	
17	19	0	
17	20	0	
17	21	0	
17	22	0	
17	23	0	
17	24	0	
17	25	0	
17	26	0	
17	27	0	
17	28	0	
17	29	0	
17	30	0	
17	31	0	
17	32	0	
17	33	0	
17	34	0	
17	35	0	
17	36	0	
17	37	0	
17	38	0	
17	39	0	
17	40	0	
18	0	0	
18	1	0	
18	2	0	
18	3	0	
18	4	0	
18	5	0	
18	6	0	
18	7	0	
18	8	0	
18	9	0	
18	10	0	
18	11	0	
18	12	0	
18	13	0	
18	14	0	
18	15	0	
18	16	0	
18	17	0	
18	18	0	
18	19	0	
18	20	0	
18	21	0	
18	22	0	
18	23	0	
18	24	0	
18	25	0	
18	26	0	
18	27	0	
18	28	0	
18	29	0	
18	30	0	
18	31	0	
18	32	0	
18	33	0	
18	34	0	
18	35	0	
18	36	0	
18	37	0	
18	38	0	
18	39	0	
18	40	0	
19	0	0	
19	1	0	
19	2	0	
19	3	0	
19	4	0	
19	5	0	
19	6	0	
19	7	0	
19	8	0	
19	9	0	
19	10	0	
19	11	0	
19	12	0	
19	13	0	
19	14	0	
19	15	0	
19	16	0	
19	17	0	
19	18	0	
19	19	0	
19	20	0	
19	21	0	
19	22	0	
19	23	0	
19	24	0	
19	25	0	
19	26	0	
19	27	0	
19	28	0	
19	29	0	
19	30	0	
19	31	0	
19	32	0	
19	33	0	
19	34	0	
19	35	0	
19	36	0	
19	37	0	
19	38	0	
19	39	0	
19	40	0	
20	0	0	
20	1	0	
20	2	0	
20	3	0	
20	4	0	
20	5	0	
20	6	0	
20	7	0	
20	8	0	
20	9	0	
20	10	0	
20	11	0	
20	12	0	
20	13	0	
20	14	0	
20	15	0	
20	16	0	
20	17	0	
20	18	0	
20	19	0	
20	20	0	
20	21	0	
20	22	0	
20	23	0	
20	24	0	
20	25	0	
20	26	0	
20	27	0	
20	28	0	
20	29	0	
20	30	0	
20	31	0	
20	32	0	
20	33	0	
20	34	0	
20	35	0	
20	36	0	
20	37	0	
20	38	0	
20	39	0	
20	40	0	
21	0	0	
21	1	0	
21	2	0	
21	3	0	
21	4	0	
21	5	0	
21	6	0	
21	7	0	
21	8	0	
21	9	0	
21	10	0	
21	11	0	
21	12	0	
21	13	0	
21	14	0	
21	15	0	
21	16	0	
21	17	0	
21	18	0	
21	19	0	
21	20	0	
21	21	0	
21	22	0	
21	23	0	
21	24	0	
21	25	0	
21	26	0	
21	27	0	
21	28	0	
21	29	0	
21	30	0	
21	31	0	
21	32	0	
21	33	0	
21	34	0	
21	35	0	
21	36	0	
21	37	0	
21	38	0	
21	39	0	
21	40	0	
22	0	0	
22	1	0	
22	2	0	
22	3	0	
22	4	0	
22	5	0	
22	6	0	
22	7	0	
22	8	0	
22	9	0	
22	10	0	
22	11	0	
22	12	0	
22	13	0	
22	14	0	
22	15	0	
22	16	0	
22	17	0	
22	18	0	
22	19	0	
22	20	0	
22	21	0	
22	22	0	
22	23	0	
22	24	0	
22	25	0	
22	26	0	
22	27	0	
22	28	0	
22	29	0	
22	30	0	
22	31	0	
22	32	0	
22	33	0	
22	34	0	
22	35	0	
22	36	0	
22	37	0	
22	38	0	
22	39	0	
22	40	0	
23	0	0	
23	1	0	
23	2	0	
23	3	0	
23	4	0	
23	5	0	
23	6	0	
23	7	0	
23	8	0	
23	9	0	
23	10	0	
23	11	0	
23	12	0	
23	13	0	
23	14	0	
23	15	0	
23	16	0	
23	17	0	
23	18	0	
23	19	0	
23	20	0	
23	21	0	
23	22	0	
23	23	0	
23	24	0	
23	25	0	
23	26	0	
23	27	0	
23	28	0	
23	29	0	
23	30	0	
23	31	0	
23	32	0	
23	33	0	
23	34	0	
23	35	0	
23	36	0	
23	37	0	
23	38	0	
23	39	0	
23	40	0	
24	0	0	
24	1	0	
24	2	0	
24	3	0	
24	4	0	
24	5	0	
24	6	0	
24	7	0	
24	8	0	
24	9	0	
24	10	0	
24	11	0	
24	12	0	
24	13	0	
24	14	0	
24	15	0	
24	16	0	
24	17	0	
24	18	0	
24	19	0	
24	20	0	
24	21	0	
24	22	0	
24	23	0	
24	24	0	
24	25	0	
24	26	0	
24	27	0	
24	28	0	
24	29	0	
24	30	0	
24	31	0	
24	32	0	
24	33	0	
24	34	0	
24	35	0	
24	36	0	
24	37	0	
24	38	0	
24	39	0	
24	40	0	
25	0	0	
25	1	0	
25	2	0	
25	3	0	
25	4	0	
25	5	0	
25	6	0	
25	7	0	
25	8	0	
25	9	0	
25	10	0	
25	11	0	
25	12	0	
25	13	0	
25	14	0	
25	15	0	
25	16	0	
25	17	0	
25	18	0	
25	19	0	
25	20	0	
25	21	0	
25	22	0	
25	23	0	
25	24	0	
25	25	0	
25	26	0	
25	27	0	
25	28	0	
25	29	0	
25	30	0	
25	31	0	
25	32	0	
25	33	0	
25	34	0	
25	35	0	
25	36	0	
25	37	0	
25	38	0	
25	39	0	
25	40	0	
26	0	0	
26	1	0	
26	2	0	
26	3	0	
26	4	0	
26	5	0	
26	6	0	
26	7	0	
26	8	0	
26	9	0	
26	10	0	
26	11	0	
26	12	0	
26	13	0	
26	14	0	
26	15	0	
26	16	0	
26	17	0	
26	18	0	
26	19	0	
26	20	0	
26	21	0	
26	22	0	
26	23	0	
26	24	0	
26	25	0	
26	26	0	
26	27	0	
26	28	0	
26	29	0	
26	30	0	
26	31	0	
26	32	0	
26	33	0	
26	34	0	
26	35	0	
26	36	0	
26	37	0	
26	38	0	
26	39	0	
26	40	0	
27	0	0	
27	1	0	
27	2	0	
27	3	0	
27	4	0	
27	5	0	
27	6	0	
27	7	0	
27	8	0	
27	9	0	
27	10	0	
27	11	0	
27	12	0	
27	13	0	
27	14	0	
27	15	0	
27	16	0	
27	17	0	
27	18	0	
27	19	0	
27	20	0	
27	21	0	
27	22	0	
27	23	0	
27	24	0	
27	25	0	
27	26	0	
27	27	0	
27	28	0	
27	29	0	
27	30	0	
27	31	0	
27	32	0	
27	33	0	
27	34	0	
27	35	0	
27	36	0	
27	37	0	
27	38	0	
27	39	0	
27	40	0	
28	0	0	
28	1	0	
28	2	0	
28	3	0	
28	4	0	
28	5	0	
28	6	0	
28	7	0	
28	8	0	
28	9	0	
28	10	0	
28	11	0	
28	12	0	
28	13	0	
28	14	0	
28	15	0	
28	16	0	
28	17	0	
28	18	0	
28	19	0	
28	20	0	
28	21	0	
28	22	0	
28	23	0	
28	24	0	
28	25	0	
28	26	0	
28	27	0	
28	28	0	
28	29	0	
28	30	0	
[...]
POINT_DATA	2501
VECTORS u float
0	0	0	
0	0	0	
0	0	0	
0	0	0	
0	0	0	
0	0	0	
0	0	0	
0	0	0	
0	0	0	
0	0	0	
0	0	0	
0	0	0	
0	0	0	
0	0	0	
0	0	0	
0	0	0	
0	0	0	
0	0	0	
0	0	0	
0	0	0	
0	0	0	
0	0	0	
0	0	0	
0	0	0	
0	0	0	
0	0	0	
0	0	0	
0	0	0	
0	0	0	
0	0	0	
0	0	0	
0	0	0	
0	0	0	
0	0	0	
0	0	0	
0	0	0	
0	0	0	
0	0	0	
0	0	0	
0	0	0	
0	0	0	
-0.0156565	-0.0143178	0	
-0.00844805	-0.00888861	0	
-0.00689342	-0.00709828	0	
-0.00558628	-0.0061477	0	
-0.00471102	-0.00555818	0	
-0.00395473	-0.0052059	0	
-0.00384738	-0.00484831	0	
-0.00482484	-0.00605902	0	
-0.00407566	-0.00694884	0	
-0.00366313	-0.00751278	0	
-0.00309941	-0.00789896	0	
-0.00263443	-0.00800789	0	
-0.00214586	-0.00829445	0	
-0.00182373	-0.0084081	0	
-0.00156357	-0.00870082	0	
-0.00130157	-0.00879378	0	
-0.00103705	-0.00887241	0	
-0.000729123	-0.00887955	0	
-0.000447208	-0.00884853	0	
-0.000219669	-0.00885617	0	
2.59127e-005	-0.00892865	0	
0.000265944	-0.00891386	0	
0.000470465	-0.00889832	0	
0.000680542	-0.0088514	0	
0.00092051	-0.0087473	0	
0.00118912	-0.00867634	0	
0.00157805	-0.00868365	0	
0.00199377	-0.00856058	0	
0.0023858	-0.00847913	0	
0.00275415	-0.00812193	0	
0.00302458	-0.00779371	0	
0.00348674	-0.00736912	0	
0.00395643	-0.00661295	0	
0.00484803	-0.00608662	0	
0.00383506	-0.0048434	0	
0.00395779	-0.0052027	0	
0.00471216	-0.00555603	0	
0.00558916	-0.00614648	0	
0.00689709	-0.00709803	0	
0.00845275	-0.00888987	0	
0.0156632	-0.0143219	0	
-0.0263388	-0.0230489	0	
-0.0188791	-0.0193455	0	
-0.0142515	-0.0158522	0	
-0.0117105	-0.0138962	0	
-0.00973183	-0.0126054	0	
-0.00820164	-0.0116452	0	
-0.00726472	-0.0110069	0	
-0.00481261	-0.0102939	0	
-0.00372549	-0.0124255	0	
-0.00643944	-0.0160777	0	
-0.00584116	-0.0164796	0	
-0.00482821	-0.0170054	0	
-0.00403846	-0.0170022	0	
-0.00326845	-0.0173993	0	
-0.00272178	-0.0175102	0	
-0.00240682	-0.0178264	0	
-0.00194603	-0.0180242	0	
-0.00146064	-0.0180493	0	
-0.000915889	-0.0180236	0	
-0.000370839	-0.0179671	0	
8.8099e-005	-0.0180739	0	
0.000481703	-0.0179915	0	
0.000837488	-0.017972	0	
0.00121804	-0.0178604	0	
0.00169921	-0.0178152	0	
0.00239194	-0.0177778	0	
0.00301589	-0.0177529	0	
0.00372258	-0.0177638	0	
0.00431707	-0.0172643	0	
0.00475528	-0.0169098	0	
0.00554364	-0.0161902	0	
0.00604282	-0.0156764	0	
0.00374119	-0.0125054	0	
0.00477547	-0.0102622	0	
0.00726972	-0.0110015	0	
0.00820088	-0.011644	0	
0.00973629	-0.0126037	0	
0.0117161	-0.0138957	0	
0.0142596	-0.0158531	0	
0.0188896	-0.0193487	0	
0.0263517	-0.0230545	0	
-0.035612	-0.0320761	0	
-0.0278974	-0.0283163	0	
-0.0221825	-0.0251575	0	
-0.0180707	-0.0225723	0	
-0.0150519	-0.0207734	0	
-0.0126464	-0.0194837	0	
-0.0103026	-0.0187305	0	
-0.00813023	-0.0183613	0	
-0.00370493	-0.0172049	0	
-0.00573746	-0.0223387	0	
-0.00748151	-0.0259485	0	
-0.00684826	-0.0261535	0	
-0.00555866	-0.0267657	0	
-0.00449191	-0.0264783	0	
-0.00382374	-0.0266787	0	
-0.00308052	-0.0269619	0	
-0.00265239	-0.027239	0	
-0.00207564	-0.0274611	0	
-0.00136289	-0.0274617	0	
-0.000606007	-0.0274171	0	
9.15174e-005	-0.027353	0	
0.00063213	-0.0272138	0	
0.00112455	-0.0271175	0	
0.00173302	-0.0271551	0	
0.00256263	-0.0271953	0	
0.00342275	-0.0273087	0	
0.00443209	-0.0272066	0	
0.00492786	-0.0268702	0	
0.00551786	-0.0266921	0	
0.00643945	-0.025776	0	
0.0069987	-0.0254624	0	
0.00570294	-0.0221027	0	
0.00375195	-0.0172457	0	
0.00812387	-0.0183815	0	
0.0102995	-0.018735	0	
0.0126493	-0.0194833	0	
0.0150571	-0.0207742	0	
0.01808	-0.0225737	0	
0.0221951	-0.0251607	0	
0.0279136	-0.0283217	0	
0.0356314	-0.0320843	0	
-0.0441346	-0.0407622	0	
-0.0361011	-0.0374216	0	
-0.0296223	-0.0343155	0	
-0.0245205	-0.0317473	0	
-0.020446	-0.0297216	0	
-0.0170068	-0.0283121	0	
-0.0138444	-0.027348	0	
-0.0105893	-0.0268585	0	
-0.00648923	-0.0269284	0	
-0.00412679	-0.0283015	0	
-0.00685522	-0.032406	0	
-0.00767248	-0.0365082	0	
-0.00679438	-0.0360572	0	
-0.00600671	-0.0362132	0	
-0.00455452	-0.0362302	0	
-0.00375373	-0.0362478	0	
-0.00301766	-0.0365403	0	
-0.00245108	-0.0368562	0	
-0.00175493	-0.0370904	0	
-0.000921866	-0.0369931	0	
-0.000101856	-0.0368842	0	
0.000675842	-0.0365515	0	
0.00147752	-0.0365656	0	
0.00241237	-0.0366853	0	
0.0034056	-0.0369282	0	
0.00444046	-0.0369413	0	
0.00508916	-0.0367774	0	
0.00600293	-0.0361842	0	
0.00630987	-0.0356064	0	
0.00709058	-0.0359115	0	
0.00659207	-0.0321178	0	
0.00412341	-0.0283093	0	
0.00649079	-0.026929	0	
0.0105883	-0.0268573	0	
0.0138389	-0.0273521	0	
0.0170092	-0.0283154	0	
0.0204539	-0.0297245	0	
0.0245331	-0.031752	0	
0.0296397	-0.0343221	0	
0.0361231	-0.0374306	0	
0.0441611	-0.040774	0	
-0.0519825	-0.049687	0	
-0.0436517	-0.0465419	0	
-0.0366035	-0.0436604	0	
-0.030708	-0.0411487	0	
-0.0257391	-0.0391461	0	
-0.021401	-0.0376436	0	
-0.0174312	-0.0366572	0	
-0.0133068	-0.0361067	0	
-0.00952034	-0.0354665	0	
-0.00345012	-0.0342923	0	
-0.00379798	-0.0400392	0	
-0.00632281	-0.0431084	0	
-0.00831609	-0.0457081	0	
-0.00667698	-0.0463642	0	
-0.00561112	-0.046042	0	
-0.00429745	-0.0459152	0	
-0.00335804	-0.0459659	0	
-0.00261242	-0.0462578	0	
-0.00202964	-0.046541	0	
-0.00129313	-0.0466996	0	
-0.000362295	-0.0465013	0	
0.000734173	-0.0463778	0	
0.00199246	-0.0463059	0	
0.00314981	-0.0465236	0	
0.00420694	-0.0466503	0	
0.00492571	-0.0465448	0	
0.00559481	-0.0460748	0	
0.00611113	-0.0458501	0	
0.00763977	-0.0450447	0	
0.00594292	-0.0427394	0	
0.00375861	-0.0399667	0	
0.00343515	-0.0342915	0	
0.0095103	-0.035463	0	
0.0133033	-0.0361037	0	
0.0174301	-0.0366566	0	
0.0214047	-0.0376477	0	
0.0257497	-0.0391528	0	
0.0307246	-0.0411577	0	
0.0366257	-0.043672	0	
0.0436796	-0.046556	0	
0.0520162	-0.0497039	0	
-0.059292	-0.0587697	0	
-0.0506663	-0.055851	0	
-0.0431338	-0.0531355	0	
-0.0365862	-0.0507608	0	
-0.0308515	-0.0488029	0	
-0.02574	-0.0473273	0	
-0.0209789	-0.0463135	0	
-0.016495	-0.0455821	0	
-0.0118834	-0.045296	0	
-0.00691599	-0.0452424	0	
-0.00326632	-0.0459951	0	
-0.00538457	-0.0494053	0	
-0.00594249	-0.0541368	0	
-0.00726208	-0.0558185	0	
-0.00633224	-0.056154	0	
-0.00502607	-0.0559079	0	
-0.00377417	-0.055618	0	
-0.00291718	-0.0556787	0	
-0.00217332	-0.0559727	0	
-0.00156398	-0.0561713	0	
-0.000454267	-0.0566322	0	
0.00103989	-0.0564007	0	
0.00245859	-0.0565037	0	
0.00382232	-0.0563761	0	
0.00457233	-0.0561704	0	
0.00510823	-0.0558887	0	
0.00572726	-0.055598	0	
0.00649627	-0.0551154	0	
0.00544436	-0.0536879	0	
0.00526794	-0.0493214	0	
0.00322808	-0.0460068	0	
0.00688304	-0.0452365	0	
0.0118696	-0.0452917	0	
0.0164892	-0.045581	0	
0.0209806	-0.0463164	0	
0.0257479	-0.0473345	0	
0.030866	-0.0488146	0	
0.0366073	-0.0507761	0	
0.0431611	-0.0531537	0	
0.0507001	-0.0558719	0	
0.0593327	-0.0587935	0	
-0.06612	-0.0680619	0	
-0.0572269	-0.0653196	0	
-0.0492729	-0.0627661	0	
-0.0421584	-0.0604992	0	
-0.0357675	-0.0586205	0	
-0.0299404	-0.0571708	0	
-0.0245683	-0.0561562	0	
-0.0195069	-0.0555664	0	
-0.0144564	-0.0552312	0	
-0.00994998	-0.0547546	0	
-0.00336811	-0.0538206	0	
-0.00198158	-0.0579005	0	
-0.00411105	-0.0605228	0	
-0.00575644	-0.0640775	0	
-0.00634524	-0.0658126	0	
-0.00570214	-0.0657636	0	
-0.00455431	-0.0656278	0	
-0.0032294	-0.06535	0	
-0.00248889	-0.0653319	0	
-0.00134439	-0.0661431	0	
-0.000161329	-0.0665655	0	
0.00129429	-0.0669583	0	
0.00292322	-0.0664944	0	
0.00380477	-0.0661699	0	
0.00468832	-0.0655933	0	
0.00517305	-0.06508	0	
0.00558291	-0.0650283	0	
0.00517901	-0.0635629	0	
0.00393836	-0.0604016	0	
0.00194526	-0.0579606	0	
0.00330749	-0.0538053	0	
0.00991471	-0.0547517	0	
0.0144384	-0.0552322	0	
0.0195019	-0.0555709	0	
0.0245728	-0.0561657	0	
0.0299528	-0.0571858	0	
0.0357867	-0.0586404	0	
0.0421847	-0.0605228	0	
0.0493054	-0.0627935	0	
0.0572659	-0.0653493	0	
0.0661672	-0.0680932	0	
-0.0725332	-0.0775337	0	
-0.0633984	-0.074951	0	
-0.0550746	-0.0725285	0	
-0.0474764	-0.070352	0	
-0.0404841	-0.0684994	0	
-0.0340221	-0.067089	0	
-0.0280088	-0.066114	0	
-0.0224056	-0.0655784	0	
-0.0172783	-0.0652125	0	
-0.0121939	-0.0651731	0	
-0.00723108	-0.0650476	0	
-0.00294952	-0.0653202	0	
-0.00247148	-0.0682786	0	
-0.00328869	-0.0713625	0	
-0.00520355	-0.0736623	0	
-0.00581381	-0.0754502	0	
-0.00492748	-0.075517	0	
-0.0040496	-0.0752157	0	
-0.00221752	-0.0756502	0	
-0.00097203	-0.0758833	0	
0.000321474	-0.0769424	0	
0.00155888	-0.0767858	0	
0.00249019	-0.0767014	0	
0.00376943	-0.0756112	0	
0.00421204	-0.0750524	0	
0.00509617	-0.0745977	0	
0.00464583	-0.0730305	0	
0.00306659	-0.0711761	0	
0.00245881	-0.0683086	0	
0.0028946	-0.0653441	0	
0.00716257	-0.065054	0	
0.0121577	-0.0651769	0	
0.0172593	-0.065221	0	
0.0224022	-0.0655918	0	
0.0280176	-0.0661336	0	
0.0340398	-0.0671151	0	
0.0405088	-0.0685313	0	
0.047507	-0.0703881	0	
0.0551134	-0.072566	0	
0.0634402	-0.0749907	0	
0.0725884	-0.0775772	0	
-0.0785848	-0.0871769	0	
-0.0692336	-0.0847288	0	
-0.0605931	-0.0824183	0	
-0.0525701	-0.0803192	0	
-0.0450925	-0.078489	0	
-0.037959	-0.0769744	0	
-0.0312798	-0.0760633	0	
-0.0251983	-0.0755262	0	
-0.0197472	-0.0754458	0	
-0.0146811	-0.0753293	0	
-0.0102647	-0.0750423	0	
-0.00389637	-0.0741882	0	
-0.00205475	-0.0776254	0	
-0.00243486	-0.0781686	0	
-0.00324742	-0.0814752	0	
-0.00428192	-0.0836185	0	
-0.0052175	-0.0848543	0	
-0.00363284	-0.0859386	0	
-0.00221942	-0.0858264	0	
-0.000397589	-0.0864311	0	
0.000665622	-0.0863543	0	
0.00126795	-0.0867513	0	
0.00210632	-0.0860099	0	
0.00271045	-0.0856884	0	
0.00414086	-0.0843791	0	
0.00357925	-0.0831356	0	
0.00309504	-0.0811895	0	
0.00242594	-0.0781899	0	
0.00201586	-0.0776919	0	
0.00379853	-0.0741821	0	
0.010204	-0.0750469	0	
0.0146414	-0.0753447	0	
0.0197295	-0.0754636	0	
0.0251987	-0.075551	0	
0.0312947	-0.0760957	0	
0.0379839	-0.0770151	0	
0.0451232	-0.0785365	0	
0.0526053	-0.0803714	0	
0.0606359	-0.0824752	0	
0.0692791	-0.0847882	0	
0.0786449	-0.0872365	0	
-0.0843179	-0.0969794	0	
-0.0747786	-0.0946524	0	
-0.065862	-0.0924441	0	
-0.0574937	-0.0904032	0	
-0.0495655	-0.0885885	0	
-0.042025	-0.0870002	0	
-0.0343445	-0.0856392	0	
-0.027563	-0.0854849	0	
-0.0220174	-0.0854351	0	
-0.0173162	-0.0853958	0	
-0.0123994	-0.0855378	0	
-0.00817312	-0.08564	0	
-0.00324617	-0.085079	0	
-0.00231608	-0.0880532	0	
-0.00156201	-0.0888656	0	
-0.00319953	-0.0911065	0	
-0.00289961	-0.0943753	0	
-0.00298806	-0.0955313	0	
-0.00158348	-0.096612	0	
-0.000445597	-0.0960872	0	
0.000515251	-0.0962583	0	
0.00101773	-0.0955516	0	
0.00120681	-0.0958561	0	
0.00206549	-0.0949143	0	
0.00200798	-0.094038	0	
0.00270958	-0.0911162	0	
0.00150003	-0.0890095	0	
0.00243325	-0.0880176	0	
0.00315765	-0.0851127	0	
0.00806201	-0.0856603	0	
0.0123431	-0.0855555	0	
0.0172784	-0.0854158	0	
0.0220014	-0.0854652	0	
0.0275695	-0.0855217	0	
0.0343702	-0.0856887	0	
0.0420584	-0.0870604	0	
0.0496015	-0.0886537	0	
0.0575339	-0.0904727	0	
0.0659059	-0.0925155	0	
0.0748288	-0.0947252	0	
0.084379	-0.0970541	0	
-0.0897695	-0.106915	0	
-0.0800685	-0.104694	0	
-0.0709177	-0.102573	0	
-0.0622474	-0.100607	0	
-0.0539684	-0.0988112	0	
-0.0459619	-0.0972827	0	
-0.0382599	-0.0957385	0	
-0.028787	-0.0941792	0	
-0.0240738	-0.0950493	0	
-0.0196019	-0.0954609	0	
-0.0150123	-0.0954715	0	
-0.0105378	-0.0955558	0	
-0.00587181	-0.095975	0	
-0.00261812	-0.0971488	0	
-0.00293176	-0.0975072	0	
-0.000410943	-0.100445	0	
-0.00108093	-0.102344	0	
-0.000964156	-0.105206	0	
-0.00106977	-0.105614	0	
-0.000601902	-0.106031	0	
2.04006e-005	-0.105351	0	
0.000490344	-0.105129	0	
0.000726037	-0.104486	0	
0.000434175	-0.104518	0	
0.000660105	-0.102232	0	
0.000220026	-0.100699	0	
0.00275877	-0.0977582	0	
0.00244545	-0.0971756	0	
0.00572847	-0.0959606	0	
0.0104411	-0.0955577	0	
0.0149543	-0.0954832	0	
0.0195704	-0.0954865	0	
0.0240623	-0.0950856	0	
0.0288074	-0.0942415	0	
0.0383009	-0.0958151	0	
0.0460006	-0.0973617	0	
0.0540105	-0.0988947	0	
0.0622903	-0.100693	0	
0.0709629	-0.102661	0	
0.0801196	-0.104783	0	
0.0898314	-0.107003	0	
-0.0949719	-0.116956	0	
-0.0851351	-0.11483	0	
-0.0757811	-0.112795	0	
-0.0668385	-0.110898	0	
-0.0582654	-0.109189	0	
-0.0498727	-0.107622	0	
-0.0417556	-0.10663	0	
-0.0332443	-0.105045	0	
-0.0261611	-0.104916	0	
-0.0218081	-0.104994	0	
-0.0175764	-0.105436	0	
-0.0126743	-0.105729	0	
-0.00851555	-0.105831	0	
-0.00281262	-0.105413	0	
-0.000581905	-0.108713	0	
-0.000691062	-0.109125	0	
0.000907797	-0.111919	0	
0.000477553	-0.112769	0	
-0.000299383	-0.114518	0	
-0.000508527	-0.114735	0	
-0.000435211	-0.114794	0	
-0.000176852	-0.114111	0	
-3.54e-006	-0.113706	0	
-0.000527075	-0.112276	0	
-0.000923398	-0.111948	0	
0.000547254	-0.109323	0	
0.000371488	-0.108827	0	
0.00257447	-0.105377	0	
0.0083836	-0.105847	0	
0.0125769	-0.105753	0	
0.0175204	-0.105466	0	
0.0217768	-0.105029	0	
0.0261744	-0.104968	0	
0.0333103	-0.105138	0	
0.0417962	-0.106721	0	
0.0499217	-0.107718	0	
0.058312	-0.109291	0	
0.0668833	-0.111001	0	
0.0758264	-0.1129	0	
0.0851844	-0.114934	0	
0.0950315	-0.117059	0	
-0.0999563	-0.127082	0	
-0.0900085	-0.125037	0	
-0.0804663	-0.123079	0	
-0.0712933	-0.121255	0	
-0.0623978	-0.119603	0	
-0.0538567	-0.11816	0	
-0.0448638	-0.116758	0	
-0.037794	-0.11642	0	
-0.0309107	-0.115473	0	
-0.025689	-0.116242	0	
-0.019548	-0.11562	0	
-0.0151798	-0.115852	0	
-0.0102229	-0.116265	0	
-0.00625307	-0.116794	0	
-0.00115038	-0.116251	0	
0.000570905	-0.120266	0	
0.000797431	-0.119924	0	
0.00072351	-0.121535	0	
0.000686317	-0.122312	0	
-0.000320595	-0.123199	0	
-0.000562236	-0.123685	0	
-0.000556033	-0.123073	0	
-0.00100049	-0.12213	0	
-0.00058724	-0.121393	0	
-0.00071306	-0.119905	0	
-0.000687815	-0.12035	0	
0.000991228	-0.116348	0	
0.00605961	-0.116874	0	
0.010079	-0.11632	0	
0.0150811	-0.115901	0	
0.0194886	-0.115667	0	
0.0256717	-0.116295	0	
0.0309153	-0.11555	0	
0.0378457	-0.116502	0	
0.0449265	-0.116856	0	
0.0539148	-0.118277	0	
0.0624477	-0.11972	0	
0.0713397	-0.121374	0	
0.0805099	-0.123199	0	
0.0900538	-0.125156	0	
0.10001	-0.127198	0	
-0.10476	-0.137273	0	
-0.0947156	-0.135296	0	
-0.0850041	-0.133399	0	
-0.0755985	-0.131638	0	
-0.06649	-0.130021	0	
-0.0575087	-0.128642	0	
-0.0492181	-0.127175	0	
-0.0390355	-0.125437	0	
-0.0341003	-0.126428	0	
-0.0300431	-0.126678	0	
-0.0232646	-0.126854	0	
-0.017034	-0.12616	0	
-0.0123977	-0.126366	0	
-0.00796293	-0.126736	0	
-0.00426965	-0.127681	0	
-0.000781871	-0.127888	0	
-0.000339265	-0.129828	0	
0.00088545	-0.129986	0	
6.93044e-005	-0.13048	0	
0.000335504	-0.131765	0	
-0.000451287	-0.131705	0	
-0.00102645	-0.131964	0	
-0.000402341	-0.130753	0	
-0.000955531	-0.130122	0	
0.000344649	-0.129757	0	
0.000635496	-0.128026	0	
0.0040629	-0.12777	0	
0.00777556	-0.126817	0	
0.0122461	-0.126449	0	
0.0169258	-0.126232	0	
0.0231954	-0.126918	0	
0.0300722	-0.126733	0	
0.03417	-0.126486	0	
0.0390976	-0.125549	0	
0.0493076	-0.127312	0	
0.0575674	-0.128769	0	
0.066546	-0.130153	0	
0.0756449	-0.131772	0	
0.0850446	-0.133532	0	
0.094754	-0.135427	0	
0.104803	-0.1374	0	
-0.109422	-0.147516	0	
-0.0992859	-0.145589	0	
-0.0894152	-0.143743	0	
-0.0798006	-0.14201	0	
-0.0704458	-0.140462	0	
-0.0613335	-0.138956	0	
-0.0524294	-0.138044	0	
-0.0443024	-0.136676	0	
-0.0368759	-0.136077	0	
-0.0314245	-0.135927	0	
-0.0255883	-0.136042	0	
-0.0190988	-0.135917	0	
-0.0144196	-0.135926	0	
-0.00976218	-0.136429	0	
-0.00599674	-0.136898	0	
-0.00281417	-0.137986	0	
-0.000587947	-0.138944	0	
-0.00121044	-0.138678	0	
0.000492153	-0.13993	0	
-0.000402597	-0.139322	0	
-0.000232285	-0.140966	0	
-3.64071e-005	-0.139628	0	
-0.000817023	-0.140245	0	
0.000926907	-0.138876	0	
0.000356359	-0.13904	0	
0.00259109	-0.138062	0	
0.00579074	-0.136976	0	
0.00956336	-0.136504	0	
0.0142773	-0.135991	0	
0.0189779	-0.136005	0	
0.0255419	-0.136159	0	
0.0313723	-0.13606	0	
0.0370875	-0.136254	0	
0.0444759	-0.136836	0	
0.0524883	-0.138174	0	
0.0614092	-0.139091	0	
0.0705044	-0.140605	0	
0.0798476	-0.142155	0	
0.0894506	-0.143887	0	
0.0993146	-0.145729	0	
0.109451	-0.147651	0	
-0.113978	-0.157807	0	
-0.103752	-0.155919	0	
-0.0937188	-0.154103	0	
-0.0839227	-0.15241	0	
-0.0743123	-0.150819	0	
-0.0650837	-0.149494	0	
-0.0556669	-0.147932	0	
-0.0479968	-0.147499	0	
-0.0411587	-0.146786	0	
-0.0326256	-0.145326	0	
-0.028858	-0.145181	0	
-0.0225315	-0.145379	0	
-0.0157496	-0.145089	0	
-0.0116909	-0.145377	0	
-0.00756073	-0.145959	0	
-0.00440701	-0.146487	0	
-0.00176771	-0.147549	0	
-6.32448e-005	-0.148785	0	
-0.00167254	-0.147405	0	
-1.97671e-005	-0.149746	0	
-9.85135e-005	-0.148138	0	
-0.00024526	-0.149909	0	
0.00129528	-0.147641	0	
-0.000233271	-0.148861	0	
0.00150244	-0.147627	0	
0.0041676	-0.146565	0	
0.00733958	-0.146034	0	
0.0114935	-0.145455	0	
0.0155834	-0.145175	0	
0.0224416	-0.145447	0	
0.0288231	-0.145239	0	
0.0325738	-0.14541	0	
0.0411751	-0.146835	0	
0.0480752	-0.14759	0	
0.0557675	-0.148053	0	
0.065165	-0.149641	0	
0.074378	-0.150969	0	
0.0839682	-0.152563	0	
0.093747	-0.154253	0	
0.103768	-0.156064	0	
0.113989	-0.157945	0	
-0.118469	-0.168165	0	
-0.108132	-0.166299	0	
-0.0979546	-0.16451	0	
-0.0879374	-0.162814	0	
-0.0782091	-0.161265	0	
-0.0684853	-0.159778	0	
-0.0598025	-0.158607	0	
-0.0493071	-0.15662	0	
-0.0442823	-0.156885	0	
-0.0392922	-0.157231	0	
-0.0313412	-0.155612	0	
-0.0254424	-0.15476	0	
-0.0187291	-0.15457	0	
-0.0131741	-0.154053	0	
-0.00925823	-0.154049	0	
-0.00568007	-0.154881	0	
-0.00320051	-0.155489	0	
-0.00107931	-0.156296	0	
0.000846193	-0.157643	0	
-0.00105691	-0.156637	0	
-0.000112494	-0.159375	0	
0.000825877	-0.156679	0	
-0.00115735	-0.157713	0	
0.00078055	-0.156371	0	
0.00292305	-0.155571	0	
0.00542173	-0.154962	0	
0.00902309	-0.154128	0	
0.0129746	-0.154136	0	
0.0185421	-0.154646	0	
0.0253482	-0.154827	0	
0.0313348	-0.155704	0	
0.0391975	-0.157244	0	
0.0443494	-0.156953	0	
0.0494066	-0.156739	0	
0.059928	-0.158756	0	
0.0685816	-0.15993	0	
0.078279	-0.161427	0	
0.087978	-0.16297	0	
0.0979728	-0.164661	0	
0.108132	-0.166442	0	
0.118458	-0.168299	0	
-0.122915	-0.178611	0	
-0.112459	-0.176763	0	
-0.102106	-0.174985	0	
-0.0919478	-0.173302	0	
-0.0818898	-0.171714	0	
-0.0723242	-0.170264	0	
-0.0622802	-0.168943	0	
-0.0545613	-0.168632	0	
-0.0473656	-0.167549	0	
-0.0409453	-0.166622	0	
-0.0363314	-0.166807	0	
-0.0285868	-0.165662	0	
-0.0204039	-0.164349	0	
-0.0153368	-0.163122	0	
-0.0118411	-0.162692	0	
-0.00626649	-0.161589	0	
-0.00460354	-0.162998	0	
-0.00221728	-0.164206	0	
-0.000199388	-0.164892	0	
0.00132779	-0.166398	0	
-0.000141261	-0.166514	0	
-0.00165841	-0.166441	0	
-0.000117758	-0.16495	0	
0.00191367	-0.164274	0	
0.00432193	-0.163067	0	
0.00599923	-0.161677	0	
0.0115926	-0.16279	0	
0.015125	-0.16321	0	
0.0202125	-0.164473	0	
0.0284687	-0.165795	0	
0.0364257	-0.166943	0	
0.0408969	-0.166797	0	
0.0475487	-0.167758	0	
0.0547327	-0.168804	0	
0.062414	-0.169106	0	
0.0724389	-0.170443	0	
0.0819525	-0.171877	0	
0.0919801	-0.173453	0	
0.10211	-0.175125	0	
0.11244	-0.176894	0	
0.122877	-0.178732	0	
-0.127343	-0.189182	0	
-0.116729	-0.187343	0	
-0.106229	-0.185577	0	
-0.0958399	-0.183891	0	
-0.085719	-0.182289	0	
-0.0755551	-0.18081	0	
-0.0662399	-0.179434	0	
-0.0556829	-0.177493	0	
-0.0504607	-0.177542	0	
-0.0435951	-0.176607	0	
-0.0381621	-0.175469	0	
-0.0302244	-0.175382	0	
-0.0243778	-0.174956	0	
-0.019227	-0.174524	0	
-0.0148198	-0.172906	0	
-0.00979501	-0.173108	0	
-0.00627252	-0.171916	0	
-0.0035576	-0.171247	0	
-0.00136686	-0.172364	0	
0.000531374	-0.172812	0	
-0.000165148	-0.175102	0	
-0.00086203	-0.172846	0	
0.00104517	-0.17241	0	
0.00325527	-0.171302	0	
0.00598468	-0.172001	0	
0.00950158	-0.173216	0	
0.0145388	-0.172982	0	
0.0189872	-0.174714	0	
0.0241779	-0.17512	0	
0.0300853	-0.175528	0	
0.0381477	-0.175575	0	
0.0437308	-0.176704	0	
0.0508143	-0.17757	0	
0.0558499	-0.177649	0	
0.0664367	-0.179657	0	
0.0756439	-0.180987	0	
0.0857743	-0.182443	0	
0.0958547	-0.184023	0	
0.106217	-0.185696	0	
0.116691	-0.187451	0	
0.127278	-0.18928	0	
-0.131749	-0.199911	0	
-0.120971	-0.198082	0	
-0.110279	-0.196327	0	
-0.0997571	-0.194638	0	
-0.0893193	-0.19303	0	
-0.0792672	-0.191474	0	
-0.0689166	-0.190009	0	
-0.0600534	-0.189324	0	
-0.052183	-0.187564	0	
-0.0463077	-0.187255	0	
-0.040183	-0.187077	0	
-0.0332408	-0.185901	0	
-0.0276349	-0.185291	0	
-0.021269	-0.18444	0	
-0.0186691	-0.184452	0	
-0.0128084	-0.182209	0	
-0.00834894	-0.182596	0	
-0.00572286	-0.180748	0	
-0.00293326	-0.178871	0	
-0.000890424	-0.17916	0	
-0.000168488	-0.178132	0	
0.000560869	-0.179174	0	
0.00260958	-0.178912	0	
0.00542838	-0.180822	0	