# vtk DataFile Version 4.1
vtk output
ASCII
DATASET UNSTRUCTURED_GRID

POINTS	7401	float
0	0	0	
0	1	0	
0	2	0	
0	3	0	
0	4	0	
0	5	0	
0	6	0	
0	7	0	
0	8	0	
0	9	0	
0	10	0	
0	11	0	
0	12	0	
0	13	0	
0	14	0	
0	15	0	
0	16	0	
0	17	0	
0	18	0	
0	19	0	
0	20	0	
0	21	0	
0	22	0	
0	23	0	
0	24	0	
0	25	0	
0	26	0	
0	27	0	
0	28	0	
0	29	0	
0	30	0	
0	31	0	
0	32	0	
0	33	0	
0	34	0	
0	35	0	
0	36	0	
0	37	0	
0	38	0	
0	39	0	
0	40	0	
1	0	0	
1	1	0	
1	2	0	
1	3	0	
1	4	0	
1	5	0	
1	6	0	
1	7	0	
1	8	0	
1	9	0	
1	10	0	
1	11	0	
1	12	0	
1	13	0	
1	14	0	
1	15	0	
1	16	0	
1	17	0	
1	18	0	
1	19	0	
1	20	0	
1	21	0	
1	22	0	
1	23	0	
1	24	0	
1	25	0	
1	26	0	
1	27	0	
1	28	0	
1	29	0	
1	30	0	
1	31	0	
1	32	0	
1	33	0	
1	34	0	
1	35	0	
1	36	0	
1	37	0	
1	38	0	
1	39	0	
1	40	0	
2	0	0	
2	1	0	
2	2	0	
2	3	0	
2	4	0	
2	5	0	
2	6	0	
2	7	0	
2	8	0	
2	9	0	
2	10	0	
2	11	0	
2	12	0	
2	13	0	
2	14	0	
2	15	0	
2	16	0	
2	17	0	
2	18	0	
2	19	0	
2	20	0	
2	21	0	
2	22	0	
2	23	0	
2	24	0	
2	25	0	
2	26	0	
2	27	0	
2	28	0	
2	29	0	
2	30	0	
2	31	0	
2	32	0	
2	33	0	
2	34	0	
2	35	0	
2	36	0	
2	37	0	
2	38	0	
2	39	0	
2	40	0	
3	0	0	
3	1	0	
3	2	0	
3	3	0	
3	4	0	
3	5	0	
3	6	0	
3	7	0	
3	8	0	
3	9	0	
3	10	0	
3	11	0	
3	12	0	
3	13	0	
3	14	0	
3	15	0	
3	16	0	
3	17	0	
3	18	0	
3	19	0	
3	20	0	
3	21	0	
3	22	0	
3	23	0	
3	24	0	
3	25	0	
3	26	0	
3	27	0	
3	28	0	
3	29	0	
3	30	0	
3	31	0	
3	32	0	
3	33	0	
3	34	0	
3	35	0	
3	36	0	
3	37	0	
3	38	0	
3	39	0	
3	40	0	
4	0	0	
4	1	0	
4	2	0	
4	3	0	
4	4	0	
4	5	0	
4	6	0	
4	7	0	
4	8	0	
4	9	0	
4	10	0	
4	11	0	
4	12	0	
4	13	0	
4	14	0	
4	15	0	
4	16	0	
4	17	0	
4	18	0	
4	19	0	
4	20	0	
4	21	0	
4	22	0	
4	23	0	
4	24	0	
4	25	0	
4	26	0	
4	27	0	
4	28	0	
4	29	0	
4	30	0	
4	31	0	
4	32	0	
4	33	0	
4	34	0	
4	35	0	
4	36	0	
4	37	0	
4	38	0	
4	39	0	
4	40	0	
5	0	0	
5	1	0	
5	2	0	
5	3	0	
5	4	0	
5	5	0	
5	6	0	
5	7	0	
5	8	0	
5	9	0	
5	10	0	
5	11	0	
5	12	0	
5	13	0	
5	14	0	
5	15	0	
5	16	0	
5	17	0	
5	18	0	
5	19	0	
5	20	0	
5	21	0	
5	22	0	
5	23	0	
5	24	0	
5	25	0	
5	26	0	
5	27	0	
5	28	0	
5	29	0	
5	30	0	
5	31	0	
5	32	0	
5	33	0	
5	34	0	
5	35	0	
5	36	0	
5	37	0	
5	38	0	
5	39	0	
5	40	0	
6	0	0	
6	1	0	
6	2	0	
6	3	0	
6	4	0	
6	5	0	
6	6	0	
6	7	0	
6	8	0	
6	9	0	
6	10	0	
6	11	0	
6	12	0	
6	13	0	
6	14	0	
6	15	0	
6	16	0	
6	17	0	
6	18	0	
6	19	0	
6	20	0	
6	21	0	
6	22	0	
6	23	0	
6	24	0	
6	25	0	
6	26	0	
6	27	0	
6	28	0	
6	29	0	
6	30	0	
6	31	0	
6	32	0	
6	33	0	
6	34	0	
6	35	0	
6	36	0	
6	37	0	
6	38	0	
6	39	0	
6	40	0	
7	0	0	
7	1	0	
7	2	0	
7	3	0	
7	4	0	
7	5	0	
7	6	0	
7	7	0	
7	8	0	
7	9	0	
7	10	0	
7	11	0	
7	12	0	
7	13	0	
7	14	0	
7	15	0	
7	16	0	
7	17	0	
7	18	0	
7	19	0	
7	20	0	
7	21	0	
7	22	0	
7	23	0	
7	24	0	
7	25	0	
7	26	0	
7	27	0	
7	28	0	
7	29	0	
7	30	0	
7	31	0	
7	32	0	
7	33	0	
7	34	0	
7	35	0	
7	36	0	
7	37	0	
7	38	0	
7	39	0	
7	40	0	
8	0	0	
8	1	0	
8	2	0	
8	3	0	
8	4	0	
8	5	0	
8	6	0	
8	7	0	
8	8	0	
8	9	0	
8	10	0	
8	11	0	
8	12	0	
8	13	0	
8	14	0	
8	15	0	
8	16	0	
8	17	0	
8	18	0	
8	19	0	
8	20	0	
8	21	0	
8	22	0	
8	23	0	
8	24	0	
8	25	0	
8	26	0	
8	27	0	
8	28	0	
8	29	0	
8	30	0	
8	31	0	
8	32	0	
8	33	0	
8	34	0	
8	35	0	
8	36	0	
8	37	0	
8	38	0	
8	39	0	
8	40	0	
9	0	0	
9	1	0	
9	2	0	
9	3	0	
9	4	0	
9	5	0	
9	6	0	
9	7	0	
9	8	0	
9	9	0	
9	10	0	
9	11	0	
9	12	0	
9	13	0	
9	14	0	
9	15	0	
9	16	0	
9	17	0	
9	18	0	
9	19	0	
9	20	0	
9	21	0	
9	22	0	
9	23	0	
9	24	0	
9	25	0	
9	26	0	
9	27	0	
9	28	0	
9	29	0	
9	30	0	
9	31	0	
9	32	0	
9	33	0	
9	34	0	
9	35	0	
9	36	0	
9	37	0	
9	38	0	
9	39	0	
9	40	0	
10	0	0	
10	1	0	
10	2	0	
10	3	0	
10	4	0	
10	5	0	
10	6	0	
10	7	0	
10	8	0	
10	9	0	
10	10	0	
10	11	0	
10	12	0	
10	13	0	
10	14	0	
10	15	0	
10	16	0	
10	17	0	
10	18	0	
10	19	0	
10	20	0	
10	21	0	
10	22	0	
10	23	0	
10	24	0	
10	25	0	
10	26	0	
10	27	0	
10	28	0	
10	29	0	
10	30	0	
10	31	0	
10	32	0	
10	33	0	
10	34	0	
10	35	0	
10	36	0	
10	37	0	
10	38	0	
10	39	0	
10	40	0	
11	0	0	
11	1	0	
11	2	0	
11	3	0	
11	4	0	
11	5	0	
11	6	0	
11	7	0	
11	8	0	
11	9	0	
11	10	0	
11	11	0	
11	12	0	
11	13	0	
11	14	0	
11	15	0	
11	16	0	
11	17	0	
11	18	0	
11	19	0	
11	20	0	
11	21	0	
11	22	0	
11	23	0	
11	24	0	
11	25	0	
11	26	0	
11	27	0	
11	28	0	
11	29	0	
11	30	0	
11	31	0	
11	32	0	
11	33	0	
11	34	0	
11	35	0	
11	36	0	
11	37	0	
11	38	0	
11	39	0	
11	40	0	
12	0	0	
12	1	0	
12	2	0	
12	3	0	
12	4	0	
12	5	0	
12	6	0	
12	7	0	
12	8	0	
12	9	0	
12	10	0	
12	11	0	
12	12	0	
12	13	0	
12	14	0	
12	15	0	
12	16	0	
12	17	0	
12	18	0	
12	19	0	
12	20	0	
12	21	0	
12	22	0	
12	23	0	
12	24	0	
12	25	0	
12	26	0	
12	27	0	
12	28	0	
12	29	0	
12	30	0	
12	31	0	
12	32	0	
12	33	0	
12	34	0	
12	35	0	
12	36	0	
12	37	0	
12	38	0	
12	39	0	
12	40	0	
13	0	0	
13	1	0	
13	2	0	
13	3	0	
13	4	0	
13	5	0	
13	6	0	
13	7	0	
13	8	0	
13	9	0	
13	10	0	
13	11	0	
13	12	0	
13	13	0	
13	14	0	
13	15	0	
13	16	0	
13	17	0	
13	18	0	
13	19	0	
13	20	0	
13	21	0	
13	22	0	
13	23	0	
13	24	0	
13	25	0	
13	26	0	
13	27	0	
13	28	0	
13	29	0	
13	30	0	
13	31	0	
13	32	0	
13	33	0	
13	34	0	
13	35	0	
13	36	0	
13	37	0	
13	38	0	
13	39	0	
13	40	0	
14	0	0	
14	1	0	
14	2	0	
14	3	0	
14	4	0	
14	5	0	
14	6	0	
14	7	0	
14	8	0	
14	9	0	
14	10	0	
14	11	0	
14	12	0	
14	13	0	
14	14	0	
14	15	0	
14	16	0	
14	17	0	
14	18	0	
14	19	0	
14	20	0	
14	21	0	
14	22	0	
14	23	0	
14	24	0	
14	25	0	
14	26	0	
14	27	0	
14	28	0	
14	29	0	
14	30	0	
14	31	0	
14	32	0	
14	33	0	
14	34	0	
14	35	0	
14	36	0	
14	37	0	
14	38	0	
14	39	0	
14	40	0	
15	0	0	
15	1	0	
15	2	0	
15	3	0	
15	4	0	
15	5	0	
15	6	0	
15	7	0	
15	8	0	
15	9	0	
15	10	0	
15	11	0	
15	12	0	
15	13	0	
15	14	0	
15	15	0	
15	16	0	
15	17	0	
15	18	0	
15	19	0	
15	20	0	
15	21	0	
15	22	0	
15	23	0	
15	24	0	
15	25	0	
15	26	0	
15	27	0	
15	28	0	
15	29	0	
15	30	0	
15	31	0	
15	32	0	
15	33	0	
15	34	0	
15	35	0	
15	36	0	
15	37	0	
15	38	0	
15	39	0	
15	40	0	
16	0	0	
16	1	0	
16	2	0	
16	3	0	
16	4	0	
16	5	0	
16	6	0	
16	7	0	
16	8	0	
16	9	0	
16	10	0	
16	11	0	
16	12	0	
16	13	0	
16	14	0	
16	15	0	
16	16	0	
16	17	0	
16	18	0	
16	19	0	
16	20	0	
16	21	0	
16	22	0	
16	23	0	
16	24	0	
16	25	0	
16	26	0	
16	27	0	
16	28	0	
16	29	0	
16	30	0	
16	31	0	
16	32	0	
16	33	0	
16	34	0	
16	35	0	
16	36	0	
16	37	0	
16	38	0	
16	39	0	
16	40	0	
17	0	0	
17	1	0	
17	2	0	
17	3	0	
17	4	0	
17	5	0	
17	6	0	
17	7	0	
17	8	0	
17	9	0	
17	10	0	
17	11	0	
17	12	0	
17	13	0	
17	14	0	
17	15	0	
17	16	0	
17	17	0	
17	18	0	
17	19	0	
17	20	0	
17	21	0	
17	22	0	
17	23	0	
17	24	0	
17	25	0	
17	26	0	
17	27	0	
17	28	0	
17	29	0	
17	30	0	
17	31	0	
17	32	0	
17	33	0	
17	34	0	
17	35	0	
17	36	0	
17	37	0	
17	38	0	
17	39	0	
17	40	0	
18	0	0	
18	1	0	
18	2	0	
18	3	0	
18	4	0	
18	5	0	
18	6	0	
18	7	0	
18	8	0	
18	9	0	
18	10	0	
18	11	0	
18	12	0	
18	13	0	
18	14	0	
18	15	0	
18	16	0	
18	17	0	
18	18	0	
18	19	0	
18	20	0	
18	21	0	
18	22	0	
18	23	0	
18	24	0	
18	25	0	
18	26	0	
18	27	0	
18	28	0	
18	29	0	
18	30	0	
18	31	0	
18	32	0	
18	33	0	
18	34	0	
18	35	0	
18	36	0	
18	37	0	
18	38	0	
18	39	0	
18	40	0	
19	0	0	
19	1	0	
19	2	0	
19	3	0	
19	4	0	
19	5	0	
19	6	0	
19	7	0	
19	8	0	
19	9	0	
19	10	0	
19	11	0	
19	12	0	
19	13	0	
19	14	0	
19	15	0	
19	16	0	
19	17	0	
19	18	0	
19	19	0	
19	20	0	
19	21	0	
19	22	0	
19	23	0	
19	24	0	
19	25	0	
19	26	0	
19	27	0	
19	28	0	
19	29	0	
19	30	0	
19	31	0	
19	32	0	
19	33	0	
19	34	0	
19	35	0	
19	36	0	
19	37	0	
19	38	0	
19	39	0	
19	40	0	
20	0	0	
20	1	0	
20	2	0	
20	3	0	
20	4	0	
20	5	0	
20	6	0	
20	7	0	
20	8	0	
20	9	0	
20	10	0	
20	11	0	
20	12	0	
20	13	0	
20	14	0	
20	15	0	
20	16	0	
20	17	0	
20	18	0	
20	19	0	
20	20	0	
20	21	0	
20	22	0	
20	23	0	
20	24	0	
20	25	0	
20	26	0	
20	27	0	
20	28	0	
20	29	0	
20	30	0	
20	31	0	
20	32	0	
20	33	0	
20	34	0	
20	35	0	
20	36	0	
20	37	0	
20	38	0	
20	39	0	
20	40	0	
21	0	0	
21	1	0	
21	2	0	
21	3	0	
21	4	0	
21	5	0	
21	6	0	
21	7	0	
21	8	0	
21	9	0	
21	10	0	
21	11	0	
21	12	0	
21	13	0	
21	14	0	
21	15	0	
21	16	0	
21	17	0	
21	18	0	
21	19	0	
21	20	0	
21	21	0	
21	22	0	
21	23	0	
21	24	0	
21	25	0	
21	26	0	
21	27	0	
21	28	0	
21	29	0	
21	30	0	
21	31	0	
21	32	0	
21	33	0	
21	34	0	
21	35	0	
21	36	0	
21	37	0	
21	38	0	
21	39	0	
21	40	0	
22	0	0	
22	1	0	
22	2	0	
22	3	0	
22	4	0	
22	5	0	
22	6	0	
22	7	0	
22	8	0	
22	9	0	
22	10	0	
22	11	0	
22	12	0	
22	13	0	
22	14	0	
22	15	0	
22	16	0	
22	17	0	
22	18	0	
22	19	0	
22	20	0	
22	21	0	
22	22	0	
22	23	0	
22	24	0	
22	25	0	
22	26	0	
22	27	0	
22	28	0	
22	29	0	
22	30	0	
22	31	0	
22	32	0	
22	33	0	
22	34	0	
22	35	0	
22	36	0	
22	37	0	
22	38	0	
22	39	0	
22	40	0	
23	0	0	
23	1	0	
23	2	0	
23	3	0	
23	4	0	
23	5	0	
23	6	0	
23	7	0	
23	8	0	
23	9	0	
23	10	0	
23	11	0	
23	12	0	
23	13	0	
23	14	0	
23	15	0	
23	16	0	
23	17	0	
23	18	0	
23	19	0	
23	20	0	
23	21	0	
23	22	0	
23	23	0	
23	24	0	
23	25	0	
23	26	0	
23	27	0	
23	28	0	
23	29	0	
23	30	0	
23	31	0	
23	32	0	
23	33	0	
23	34	0	
23	35	0	
23	36	0	
23	37	0	
23	38	0	
23	39	0	
23	40	0	
24	0	0	
24	1	0	
24	2	0	
24	3	0	
24	4	0	
24	5	0	
24	6	0	
24	7	0	
24	8	0	
24	9	0	
24	10	0	
24	11	0	
24	12	0	
24	13	0	
24	14	0	
24	15	0	
24	16	0	
24	17	0	
24	18	0	
24	19	0	
24	20	0	
24	21	0	
24	22	0	
24	23	0	
24	24	0	
24	25	0	
24	26	0	
24	27	0	
24	28	0	
24	29	0	
24	30	0	
24	31	0	
24	32	0	
24	33	0	
24	34	0	
24	35	0	
24	36	0	
24	37	0	
24	38	0	
24	39	0	
24	40	0	
25	0	0	
25	1	0	
25	2	0	
25	3	0	
25	4	0	
25	5	0	
25	6	0	
25	7	0	
25	8	0	
25	9	0	
25	10	0	
25	11	0	
25	12	0	
25	13	0	
25	14	0	
25	15	0	
25	16	0	
25	17	0	
25	18	0	
25	19	0	
25	20	0	
25	21	0	
25	22	0	
25	23	0	
25	24	0	
25	25	0	
25	26	0	
25	27	0	
25	28	0	
25	29	0	
25	30	0	
25	31	0	
25	32	0	
25	33	0	
25	34	0	
25	35	0	
25	36	0	
25	37	0	
25	38	0	
25	39	0	
25	40	0	
26	0	0	
26	1	0	
26	2	0	
26	3	0	
26	4	0	
26	5	0	
26	6	0	
26	7	0	
26	8	0	
26	9	0	
26	10	0	
26	11	0	
26	12	0	
26	13	0	
26	14	0	
26	15	0	
26	16	0	
26	17	0	
26	18	0	
26	19	0	
26	20	0	
26	21	0	
26	22	0	
26	23	0	
26	24	0	
26	25	0	
26	26	0	
26	27	0	
26	28	0	
26	29	0	
26	30	0	
26	31	0	
26	32	0	
26	33	0	
26	34	0	
26	35	0	
26	36	0	
26	37	0	
26	38	0	
26	39	0	
26	40	0	
27	0	0	
27	1	0	
27	2	0	
27	3	0	
27	4	0	
27	5	0	
27	6	0	
27	7	0	
27	8	0	
27	9	0	
27	10	0	
27	11	0	
27	12	0	
27	13	0	
27	14	0	
27	15	0	
27	16	0	
27	17	0	
27	18	0	
27	19	0	
27	20	0	
27	21	0	
27	22	0	
27	23	0	
27	24	0	
27	25	0	
27	26	0	
27	27	0	
27	28	0	
27	29	0	
27	30	0	
27	31	0	
27	32	0	
27	33	0	
27	34	0	
27	35	0	
27	36	0	
27	37	0	
27	38	0	
27	39	0	
27	40	0	
28	0	0	
28	1	0	
28	2	0	
28	3	0	
28	4	0	
28	5	0	
28	6	0	
28	7	0	
28	8	0	
28	9	0	
28	10	0	
28	11	0	
28	12	0	
28	13	0	
28	14	0	
28	15	0	
28	16	0	
28	17	0	
28	18	0	
28	19	0	
28	20	0	
28	21	0	
28	22	0	
28	23	0	
28	24	0	
28	25	0	
28	26	0	
28	27	0	
28	28	0	
28	29	0	
28	30	0	
[...]
POINT_DATA	7401
VECTORS u float
0	0	0	
0	0	0	
0	0	0	
0	0	0	
0	0	0	
0	0	0	
0	0	0	
0	0	0	
0	0	0	
0	0	0	
0	0	0	
0	0	0	
0	0	0	
0	0	0	
0	0	0	
0	0	0	
0	0	0	
0	0	0	
0	0	0	
0	0	0	
0	0	0	
0	0	0	
0	0	0	
0	0	0	
0	0	0	
0	0	0	
0	0	0	
0	0	0	
0	0	0	
0	0	0	
0	0	0	
0	0	0	
0	0	0	
0	0	0	
0	0	0	
0	0	0	
0	0	0	
0	0	0	
0	0	0	
0	0	0	
0	0	0	
-0.0251329	-0.0216442	0	
-0.0152436	-0.0151033	0	
-0.0112334	-0.0113704	0	
-0.00918133	-0.00961487	0	
-0.00767086	-0.00847688	0	
-0.00647054	-0.00759601	0	
-0.00538444	-0.00697676	0	
-0.00302191	-0.00811518	0	
-0.00164527	-0.010034	0	
-0.000759507	-0.011475	0	
-0.000725426	-0.0110952	0	
-0.000523937	-0.0105171	0	
0.00423848	-0.0186046	0	
0.00043696	-0.0210207	0	
-0.0112809	-0.00936127	0	
0.0226133	0.0125082	0	
0.0444866	0.0271234	0	
-0.0211663	-0.0323775	0	
-0.028647	-0.0419232	0	
0.0255683	0.00552961	0	
-0.0204517	-0.00401874	0	
-0.000772486	-0.0412676	0	
0.00537397	-0.0217125	0	
-0.0221395	0.00907403	0	
-0.000693143	-0.0033555	0	
-0.00466294	-0.01699	0	
-0.0170437	-0.0148047	0	
-0.00240738	-0.00425307	0	
0.00293305	-0.00937039	0	
-0.000522765	-0.0144739	0	
4.49708e-005	-0.0128688	0	
0.00059438	-0.0114883	0	
0.00157097	-0.0100399	0	
0.00296545	-0.0081612	0	
0.00534694	-0.00701696	0	
0.00645401	-0.00762575	0	
0.00766375	-0.00850083	0	
0.00917849	-0.00963635	0	
0.0112329	-0.0113897	0	
0.0152477	-0.0151218	0	
0.0251491	-0.0216648	0	
-0.04218	-0.0365881	0	
-0.0306129	-0.0300568	0	
-0.0236967	-0.025085	0	
-0.0192079	-0.0217891	0	
-0.0159174	-0.0196092	0	
-0.0132372	-0.0181788	0	
-0.0107965	-0.0173304	0	
-0.00750343	-0.0174274	0	
-0.00480845	-0.0193985	0	
-0.0030362	-0.0214455	0	
-0.00201777	-0.023081	0	
0.00121639	-0.0253206	0	
0.00357668	-0.0257355	0	
-0.0118001	-0.0204435	0	
-0.0282776	-0.0567374	0	
-0.0156906	-0.0516262	0	
0.116967	0.05727	0	
0.0856916	0.0553648	0	
-0.0575098	-0.0600749	0	
-0.0449927	-0.00725747	0	
0.0597213	-0.0193783	0	
0.0205977	-0.055869	0	
-0.0575163	-0.0101367	0	
-0.0201923	-0.0256434	0	
0.00671145	-0.0323553	0	
-0.00672318	-0.00167274	0	
-0.0158149	-0.0176624	0	
-0.00925158	-0.0352328	0	
0.00327175	-0.0254672	0	
0.00275213	-0.0232563	0	
0.00132406	-0.0234656	0	
0.00262521	-0.0216993	0	
0.00468578	-0.0195068	0	
0.00741581	-0.0175176	0	
0.0107314	-0.0174114	0	
0.0132026	-0.0182453	0	
0.0159019	-0.0196647	0	
0.0191998	-0.0218374	0	
0.0236941	-0.0251281	0	
0.0306189	-0.0300976	0	
0.042202	-0.0366296	0	
-0.0572388	-0.0504482	0	
-0.0452139	-0.0444375	0	
-0.0362432	-0.0392548	0	
-0.0296184	-0.0353058	0	
-0.0245107	-0.0324816	0	
-0.0201886	-0.030599	0	
-0.0161543	-0.0295054	0	
-0.011785	-0.0291256	0	
-0.00784466	-0.0303483	0	
-0.00505243	-0.0321355	0	
-0.00302776	-0.0342208	0	
-0.00178652	-0.0360938	0	
-0.00314137	-0.0332375	0	
0.00295914	-0.0352692	0	
-0.00181358	-0.0495115	0	
-0.0516131	-0.0935271	0	
-0.00895957	-0.0543515	0	
0.150561	0.115782	0	
0.0338751	0.0782886	0	
-0.0334787	-0.148805	0	
0.0566829	-0.131363	0	
-0.0170361	0.0563452	0	
-0.0615214	-0.0196104	0	
0.0100722	-0.0712709	0	
-0.0321475	-0.0385404	0	
-0.0203952	-0.020673	0	
0.00176167	-0.034833	0	
0.000235612	-0.0426991	0	
-0.00227003	-0.0413024	0	
0.00168924	-0.0357415	0	
0.00307913	-0.0339897	0	
0.00487292	-0.0322987	0	
0.00770042	-0.030483	0	
0.0116902	-0.0292485	0	
0.0160674	-0.0296289	0	
0.0201355	-0.0307125	0	
0.0244892	-0.0325716	0	
0.0296024	-0.035378	0	
0.0362363	-0.0393204	0	
0.0452194	-0.0445003	0	
0.0572619	-0.0505103	0	
-0.0711489	-0.0640929	0	
-0.0585467	-0.0585339	0	
-0.048259	-0.0535287	0	
-0.0399928	-0.0495132	0	
-0.0331935	-0.0463758	0	
-0.0272875	-0.0441592	0	
-0.0218014	-0.0427844	0	
-0.0164104	-0.0420925	0	
-0.0112503	-0.0427736	0	
-0.00746645	-0.044065	0	
-0.00469972	-0.0456067	0	
-0.00314152	-0.0469346	0	
-0.00186939	-0.0486741	0	
0.00220457	-0.0503276	0	
0.00370301	-0.0460527	0	
-0.00640182	-0.0623075	0	
-0.0959865	-0.118219	0	
0.00524054	-0.0273809	0	
0.25334	0.125223	0	
0.18352	-0.0728364	0	
-0.130409	-0.0732283	0	
-0.0964039	-0.0106528	0	
0.0241607	-0.0100879	0	
0.00455064	-0.00699678	0	
-0.0318982	-0.0294829	0	
-0.0116282	-0.060569	0	
0.00178871	-0.0549651	0	
0.00198032	-0.0497748	0	
5.85762e-005	-0.0499379	0	
0.00190494	-0.0479904	0	
0.00440931	-0.0458714	0	
0.00727776	-0.044222	0	
0.0111073	-0.04293	0	
0.0163119	-0.0422363	0	
0.0217005	-0.0429039	0	
0.0272183	-0.0442532	0	
0.0331587	-0.0464618	0	
0.0399724	-0.0496	0	
0.0482463	-0.0536131	0	
0.0585499	-0.0586173	0	
0.0711713	-0.0641754	0	
-0.0841115	-0.0779971	0	
-0.0709672	-0.0727765	0	
-0.0597224	-0.0679829	0	
-0.0500897	-0.064149	0	
-0.0418184	-0.06087	0	
-0.0344576	-0.0584371	0	
-0.0276521	-0.0568166	0	
-0.0211468	-0.055878	0	
-0.0150342	-0.0561653	0	
-0.0103393	-0.0569531	0	
-0.00676146	-0.0580836	0	
-0.00405521	-0.0594081	0	
-0.00193246	-0.0610332	0	
-0.00127248	-0.0617946	0	
0.000169911	-0.0603026	0	
-0.00319839	-0.0491696	0	
-0.01856	-0.0639117	0	
-0.0616997	-0.172701	0	
0.0638271	-0.0864018	0	
0.19455	-0.00295342	0	
-0.124074	-0.0431098	0	
-0.050061	-0.102172	0	
-0.0265463	-0.0684487	0	
-0.0170116	-0.0298231	0	
0.00968192	-0.0507395	0	
-0.000945507	-0.0711729	0	
-0.00327666	-0.0681343	0	
-0.000365626	-0.0630461	0	
0.00150691	-0.061267	0	
0.00350821	-0.0599237	0	
0.00640057	-0.0584286	0	
0.0101223	-0.0571823	0	
0.0148778	-0.0563524	0	
0.0210302	-0.0560408	0	
0.0275405	-0.0569619	0	
0.0343704	-0.0585693	0	
0.0417569	-0.0609967	0	
0.0500682	-0.0642694	0	
0.0597032	-0.06809	0	
0.0709669	-0.0728815	0	
0.0841324	-0.0781008	0	
-0.0963313	-0.0922611	0	
-0.0826385	-0.087339	0	
-0.0705511	-0.0827583	0	
-0.0597939	-0.0790391	0	
-0.0502685	-0.0757577	0	
-0.0416066	-0.0732149	0	
-0.0335814	-0.071423	0	
-0.0259486	-0.0703113	0	
-0.0191021	-0.0702535	0	
-0.0136142	-0.0706188	0	
-0.00924187	-0.0713311	0	
-0.00585723	-0.0722946	0	
-0.00347084	-0.0731873	0	
-0.00194512	-0.0739021	0	
-0.00295241	-0.0725853	0	
-0.00151662	-0.0698708	0	
0.0185815	-0.0820001	0	
0.0165343	-0.118191	0	
-0.0601657	-0.161127	0	
-0.0156716	-0.0172016	0	
0.0900684	0.0315294	0	
0.00398806	-0.0677333	0	
-0.0498345	-0.0733867	0	
-0.0125458	-0.0849114	0	
0.00816704	-0.0748387	0	
0.004069	-0.0738954	0	
-0.00126401	-0.076718	0	
0.000189645	-0.0755556	0	
0.00276754	-0.073855	0	
0.00546448	-0.0726549	0	
0.00893808	-0.0716264	0	
0.0133899	-0.0708549	0	
0.0189298	-0.0704536	0	
0.0258083	-0.0704923	0	
0.0334509	-0.0715867	0	
0.0415036	-0.0733651	0	
0.0501922	-0.0758932	0	
0.0597647	-0.079165	0	
0.0705273	-0.0828884	0	
0.0826334	-0.0874672	0	
0.09635	-0.0923881	0	
-0.107895	-0.106918	0	
-0.0937192	-0.102239	0	
-0.0808606	-0.0979128	0	
-0.0691336	-0.0942261	0	
-0.0585087	-0.0909552	0	
-0.048676	-0.0883443	0	
-0.039489	-0.0864297	0	
-0.0307977	-0.08531	0	
-0.0233757	-0.0848942	0	
-0.0172145	-0.0848701	0	
-0.0121544	-0.0851757	0	
-0.00810965	-0.0857245	0	
-0.00504137	-0.0863588	0	
-0.00286593	-0.0869805	0	
-0.00177665	-0.0872294	0	
0.0034364	-0.0916862	0	
0.0162535	-0.0999904	0	
0.0117908	-0.0870431	0	
-0.0304346	-0.0817695	0	
-0.0709048	-0.145413	0	
0.0290194	-0.105596	0	
-0.0106088	-0.0496463	0	
-0.000548391	-0.0826537	0	
-0.00511617	-0.100551	0	
-0.00257928	-0.0938982	0	
0.00109625	-0.0872703	0	
0.000998677	-0.0877064	0	
0.00201369	-0.0878029	0	
0.00444718	-0.086934	0	
0.00772999	-0.0860903	0	
0.0118755	-0.0854585	0	
0.0169933	-0.0851142	0	
0.023199	-0.0851106	0	
0.0306371	-0.0855008	0	
0.0393321	-0.0866059	0	
0.0485596	-0.0885159	0	
0.0584261	-0.0911224	0	
0.0690899	-0.0943896	0	
0.0808319	-0.0980721	0	
0.0937086	-0.102395	0	
0.107911	-0.107072	0	
-0.118946	-0.12203	0	
-0.104254	-0.117516	0	
-0.090691	-0.11338	0	
-0.078123	-0.109777	0	
-0.0665311	-0.106531	0	
-0.0556763	-0.103847	0	
-0.0453912	-0.101742	0	
-0.0357876	-0.100675	0	
-0.0278313	-0.0999801	0	
-0.0210803	-0.0995937	0	
-0.0154144	-0.0995267	0	
-0.0107377	-0.0997174	0	
-0.00698315	-0.100084	0	
-0.00408815	-0.100566	0	
-0.00150964	-0.101489	0	
0.00198912	-0.103995	0	
0.00233564	-0.10307	0	
-0.00303399	-0.0915187	0	
0.00211082	-0.0907665	0	
-0.00808329	-0.114311	0	
-0.0422893	-0.11763	0	
-0.00762624	-0.10017	0	
0.0120862	-0.0934925	0	
0.00292978	-0.100936	0	
-0.00173074	-0.103084	0	
-7.46494e-005	-0.101849	0	
0.00186297	-0.101078	0	
0.00372213	-0.100851	0	
0.00658388	-0.10045	0	
0.0104062	-0.100037	0	
0.0151551	-0.0997982	0	
0.0208612	-0.0998355	0	
0.0276521	-0.100202	0	
0.0356241	-0.100885	0	
0.0452263	-0.101942	0	
0.0555505	-0.104045	0	
0.0664402	-0.106731	0	
0.0780741	-0.109975	0	
0.0906563	-0.113567	0	
0.104238	-0.1177	0	
0.118956	-0.122211	0	
-0.129579	-0.137556	0	
-0.114357	-0.133236	0	
-0.10013	-0.129231	0	
-0.0867988	-0.125693	0	
-0.0743375	-0.122499	0	
-0.0625628	-0.11979	0	
-0.0512638	-0.117599	0	
-0.0410065	-0.116369	0	
-0.0324583	-0.11541	0	
-0.025166	-0.114709	0	
-0.0189593	-0.114293	0	
-0.0137197	-0.114138	0	
-0.00937762	-0.114188	0	
-0.00585286	-0.114405	0	
-0.00296298	-0.114838	0	
-0.00101978	-0.114927	0	
-0.00153744	-0.11298	0	
-0.00215841	-0.110982	0	
0.000536069	-0.107226	0	
-0.00234379	-0.0991118	0	
-0.0146502	-0.117211	0	
-0.0122575	-0.131753	0	
-0.00193104	-0.118747	0	
0.00132106	-0.112625	0	
0.000447475	-0.114117	0	
0.00118561	-0.114883	0	
0.00305672	-0.114671	0	
0.00563647	-0.114526	0	
0.0090769	-0.11443	0	
0.0134352	-0.114399	0	
0.0187135	-0.114545	0	
0.0249552	-0.114947	0	
0.0322759	-0.115636	0	
0.040838	-0.116591	0	
0.0510923	-0.117819	0	
0.0624288	-0.120013	0	
0.0742458	-0.122717	0	
0.086744	-0.125903	0	
0.100088	-0.129444	0	
0.114336	-0.133447	0	
0.129583	-0.137765	0	
-0.139742	-0.153524	0	
-0.124039	-0.149358	0	
-0.10922	-0.145474	0	
-0.0951967	-0.14199	0	
-0.0819478	-0.138859	0	
-0.0693084	-0.136161	0	
-0.0571465	-0.133928	0	
-0.0463594	-0.132449	0	
-0.0372363	-0.131198	0	
-0.029436	-0.130183	0	
-0.0227364	-0.129422	0	
-0.0169965	-0.128916	0	
-0.0121554	-0.128616	0	
-0.00815355	-0.128444	0	
-0.00503544	-0.128265	0	
-0.00306219	-0.127659	0	
-0.00233231	-0.126418	0	
-0.00286612	-0.124415	0	
-0.00368344	-0.121332	0	
0.00181672	-0.120125	0	
0.00448043	-0.124349	0	
-0.00331159	-0.132517	0	
-0.00616694	-0.133179	0	
-0.00132359	-0.128916	0	
0.000919611	-0.128171	0	
0.0024535	-0.128377	0	
0.00473433	-0.128516	0	
0.00787766	-0.12864	0	
0.0118746	-0.128834	0	
0.0167385	-0.129153	0	
0.0225023	-0.129664	0	
0.0292355	-0.130419	0	
0.0370569	-0.131433	0	
0.0461914	-0.132687	0	
0.056969	-0.134172	0	
0.0691752	-0.136399	0	
0.0818577	-0.139092	0	
0.0951318	-0.142227	0	
0.109173	-0.145714	0	
0.124013	-0.149598	0	
0.13974	-0.153761	0	
-0.149525	-0.169902	0	
-0.133366	-0.165885	0	
-0.118005	-0.162112	0	
-0.103381	-0.158651	0	
-0.0893865	-0.155609	0	
-0.0759222	-0.152887	0	
-0.0630303	-0.150668	0	
-0.0518074	-0.148907	0	
-0.0421594	-0.147335	0	
-0.0338662	-0.145989	0	
-0.0267045	-0.144887	0	
-0.020517	-0.144021	0	
-0.0152348	-0.143352	0	
-0.0108135	-0.142793	0	
-0.00730244	-0.14219	0	
-0.00485197	-0.141321	0	
-0.00349381	-0.140102	0	
-0.00285957	-0.13877	0	
-0.00182643	-0.138552	0	
0.00159719	-0.139619	0	
0.00444761	-0.136627	0	
0.00182178	-0.136617	0	
-0.00158066	-0.141393	0	
-0.000450046	-0.142574	0	
0.00176205	-0.14216	0	
0.00396217	-0.142292	0	
0.00679583	-0.142656	0	
0.0104617	-0.143085	0	
0.0149422	-0.143605	0	
0.0202653	-0.144265	0	
0.0264801	-0.145126	0	
0.0336719	-0.146229	0	
0.0419837	-0.147581	0	
0.0516409	-0.149157	0	
0.0628543	-0.150917	0	
0.0757928	-0.153141	0	
0.089292	-0.15587	0	
0.103311	-0.158918	0	
0.117954	-0.16238	0	
0.133333	-0.166152	0	
0.149516	-0.170167	0	
-0.15896	-0.186687	0	
-0.142368	-0.182805	0	
-0.126508	-0.179139	0	
-0.111314	-0.17574	0	
-0.0966805	-0.172696	0	
-0.0825021	-0.16995	0	
-0.0689873	-0.167739	0	
-0.0573323	-0.165704	0	
-0.0472054	-0.16381	0	
-0.0384386	-0.16212	0	
-0.0308308	-0.160665	0	
-0.0242291	-0.159439	0	
-0.0185382	-0.158407	0	
-0.0137121	-0.157492	0	
-0.00976354	-0.156581	0	
-0.00674351	-0.155554	0	
-0.00470941	-0.154357	0	
-0.00306345	-0.153544	0	
-0.00102147	-0.153789	0	
-0.00011097	-0.153346	0	
0.000388208	-0.151086	0	
0.00243928	-0.149492	0	
0.002612	-0.151654	0	
0.00218369	-0.154424	0	
0.00356254	-0.155518	0	
0.00594301	-0.156292	0	
0.00923416	-0.157049	0	
0.0133421	-0.157828	0	
0.018243	-0.158688	0	
0.0239832	-0.159694	0	
0.0306197	-0.160913	0	
0.0382532	-0.162371	0	
0.0470341	-0.16407	0	
0.05717	-0.165974	0	
0.068824	-0.16802	0	
0.082375	-0.170239	0	
0.0965858	-0.172988	0	
0.111241	-0.176034	0	
0.126452	-0.179434	0	
0.142328	-0.183099	0	
0.158941	-0.186977	0	
-0.168073	-0.203863	0	
-0.151071	-0.200109	0	
-0.134751	-0.196545	0	
-0.119042	-0.193212	0	
-0.103856	-0.190162	0	
-0.0890262	-0.187461	0	
-0.0750317	-0.185095	0	
-0.0629286	-0.18281	0	
-0.0523532	-0.18061	0	
-0.0431364	-0.178575	0	
-0.0350972	-0.176759	0	
-0.0280946	-0.17517	0	
-0.0220156	-0.17378	0	
-0.0167978	-0.172529	0	
-0.0124197	-0.171332	0	
-0.00888357	-0.170109	0	
-0.00623434	-0.168829	0	
-0.00387337	-0.168109	0	
-0.00218135	-0.167335	0	
-0.00167127	-0.165869	0	
-0.000766527	-0.165528	0	
0.0015989	-0.165536	0	
0.00377905	-0.165394	0	
0.00460369	-0.166909	0	
0.00587395	-0.168832	0	
0.00840751	-0.170388	0	
0.0120181	-0.171656	0	
0.0164712	-0.172834	0	
0.0217362	-0.174056	0	
0.0278621	-0.175428	0	
0.0349031	-0.177015	0	
0.0429644	-0.178843	0	
0.0521907	-0.180892	0	
0.0627732	-0.183103	0	
0.0748795	-0.185404	0	
0.0889072	-0.187779	0	
0.103762	-0.190483	0	
0.118966	-0.193533	0	
0.13469	-0.196864	0	
0.151024	-0.200426	0	
0.168042	-0.204176	0	
-0.176882	-0.221412	0	
-0.159497	-0.217778	0	
-0.142754	-0.214313	0	
-0.126579	-0.211048	0	
-0.110888	-0.208024	0	
-0.0955203	-0.20529	0	
-0.0811345	-0.202769	0	
-0.068588	-0.200233	0	
-0.0575857	-0.197726	0	
-0.0479413	-0.195346	0	
-0.0394848	-0.19317	0	
-0.0320875	-0.191216	0	
-0.0256332	-0.18947	0	
-0.0200403	-0.187886	0	
-0.0152709	-0.186376	0	
-0.0113295	-0.184849	0	
-0.00809749	-0.18344	0	
-0.00551115	-0.182193	0	
-0.00390028	-0.180678	0	
-0.00234428	-0.179894	0	
-0.000261041	-0.180165	0	
0.00168867	-0.180626	0	
0.00374023	-0.180649	0	
0.00586863	-0.181195	0	
0.0081442	-0.182921	0	
0.0110963	-0.184871	0	
0.0150034	-0.186575	0	
0.0197769	-0.188132	0	
0.0253857	-0.189723	0	
0.0318788	-0.191471	0	
0.0393156	-0.193436	0	
0.0477877	-0.195633	0	
0.0574334	-0.198026	0	
0.0684433	-0.200547	0	
0.0809937	-0.203105	0	
0.0954119	-0.205634	0	
0.110796	-0.208368	0	
0.126502	-0.21139	0	
0.142688	-0.214653	0	
0.159441	-0.218115	0	
0.176837	-0.221743	0	
-0.185402	-0.239314	0	
-0.167661	-0.235794	0	
-0.150531	-0.232421	0	
-0.133937	-0.229217	0	
-0.117801	-0.22622	0	
-0.101998	-0.223448	0	
-0.0872768	-0.220748	0	
-0.0743062	-0.217959	0	
-0.0628899	-0.21515	0	
-0.0528376	-0.212428	0	
-0.0439768	-0.209892	0	
-0.0361911	-0.207576	0	
-0.0293703	-0.205471	0	
-0.0234203	-0.203541	0	
-0.0182878	-0.201712	0	
-0.013977	-0.199867	0	
-0.0103248	-0.198166	0	
-0.00745492	-0.196435	0	
-0.00496848	-0.195227	0	
-0.0024015	-0.194988	0	
-1.30923e-005	-0.195154	0	
0.00204788	-0.195246	0	
0.00420268	-0.195601	0	
0.00702421	-0.196411	0	
0.0102596	-0.197907	0	
0.0138594	-0.199846	0	
0.0181048	-0.201861	0	
0.0232012	-0.203753	0	
0.0291604	-0.205705	0	
0.0360192	-0.20783	0	
0.0438355	-0.210171	0	
0.0526974	-0.212729	0	
0.0627479	-0.215465	0	
0.0741747	-0.218293	0	
0.087146	-0.22111	0	
0.101896	-0.223813	0	
0.117711	-0.226583	0	
0.133859	-0.229576	0	
0.150459	-0.232776	0	
0.167595	-0.236143	0	
0.185341	-0.239657	0	
-0.193644	-0.257543	0	
-0.175578	-0.254133	0	
-0.158096	-0.250849	0	
-0.14113	-0.247697	0	
-0.1246	-0.244711	0	
-0.108447	-0.241903	0	
-0.0934443	-0.239014	0	
-0.080074	-0.235973	0	
-0.0682569	-0.232869	0	
-0.0578137	-0.229813	0	
-0.0485605	-0.22692	0	
-0.0403918	-0.224245	0	
-0.0332103	-0.221779	0	
-0.0269162	-0.219495	0	
-0.0214477	-0.217328	0	
-0.0167459	-0.215231	0	
-0.0126843	-0.213277	0	
-0.00907936	-0.211667	0	
-0.00568023	-0.210784	0	
-0.00258756	-0.210361	0	
-1.30353e-005	-0.210114	0	
0.00231371	-0.210142	0	
0.00506776	-0.210844	0	
0.00852338	-0.211998	0	
0.0124004	-0.213491	0	
0.0165886	-0.215369	0	
0.0212749	-0.217503	0	
0.0267159	-0.219703	0	
0.0330331	-0.222012	0	
0.0402624	-0.224513	0	
0.0484528	-0.227221	0	
0.0576841	-0.230125	0	
0.068126	-0.23319	0	
0.079955	-0.236327	0	
0.0933253	-0.239401	0	
0.108347	-0.242286	0	
0.124511	-0.245089	0	
0.14105	-0.248068	0	
0.15802	-0.251212	0	
0.1755	-0.254487	0	
0.193566	-0.257889	0	
-0.201619	-0.276072	0	
-0.183255	-0.27277	0	
-0.165461	-0.269572	0	
-0.14817	-0.266467	0	
-0.13128	-0.263475	0	
-0.114858	-0.260603	0	
-0.0996286	-0.257546	0	
-0.0858847	-0.254257	0	
-0.0736816	-0.250862	0	
-0.0628613	-0.247487	0	
-0.0532304	-0.244246	0	
-0.0446789	-0.241215	0	
-0.0371404	-0.238401	0	
-0.0305061	-0.235768	0	
-0.0246842	-0.233287	0	
-0.0195304	-0.231055	0	
-0.0148833	-0.229138	0	
-0.0105595	-0.227747	0	
-0.0065866	-0.226677	0	
-0.00320057	-0.225821	0	
-0.000246972	-0.225302	0	
0.00283372	-0.225532	0	
0.0063607	-0.226518	0	
0.0102447	-0.227925	0	
0.0145698	-0.229515	0	
0.0193025	-0.231341	0	
0.0244765	-0.233538	0	
0.0303115	-0.235999	0	
0.0370032	-0.238657	0	
0.0445958	-0.241511	0	
0.0531391	-0.244554	0	
0.062737	-0.247797	0	
0.0735725	-0.251195	0	
0.0857867	-0.254634	0	
0.0995221	-0.257948	0	
0.114757	-0.261004	0	
0.131189	-0.263867	0	
0.148089	-0.266846	0	
0.165377	-0.269934	0	
0.183165	-0.273118	0	
0.201523	-0.276413	0	
-0.209333	-0.294875	0	
-0.1907	-0.291678	0	
-0.17263	-0.288568	0	
-0.155068	-0.285505	0	
-0.137888	-0.282501	0	
-0.121268	-0.279517	0	
-0.105817	-0.276308	0	
-0.0917363	-0.272792	0	
-0.0791589	-0.269112	0	
-0.0679718	-0.265433	0	
-0.0579812	-0.261858	0	
-0.0490453	-0.258483	0	
-0.0411489	-0.255332	0	
-0.0341568	-0.252407	0	
-0.0278999	-0.249763	0	
-0.0222237	-0.24749	0	
-0.0169948	-0.245641	0	
-0.0122122	-0.244072	0	
-0.00795068	-0.242664	0	
-0.00406563	-0.241589	0	
-0.000307666	-0.24114	0	
0.00361241	-0.241589	0	
0.00776605	-0.242631	0	
0.0121301	-0.244088	0	
0.0168311	-0.245842	0	
0.0219885	-0.247776	0	
0.0276584	-0.250022	0	
0.0339676	-0.252667	0	
0.0410623	-0.255623	0	
0.0490081	-0.2588	0	
0.0578846	-0.262164	0	
0.0678529	-0.265737	0	
0.0790755	-0.269455	0	
0.0916583	-0.273181	0	
0.105727	-0.27672	0	
0.121171	-0.279934	0	
0.137796	-0.282908	0	
0.154986	-0.285886	0	
0.172537	-0.288918	0	
0.190597	-0.292014	0	
0.209225	-0.295205	0	
-0.216799	-0.313929	0	
-0.197912	-0.310838	0	
-0.179607	-0.307811	0	
-0.161833	-0.30476	0	
-0.144445	-0.301768	0	
-0.127688	-0.298636	0	
-0.112016	-0.295272	0	
-0.0976251	-0.29155	0	
-0.0846824	-0.287589	0	
-0.0731389	-0.283617	0	
-0.0628106	-0.27974	0	
-0.0535098	-0.276032	0	
-0.0452208	-0.272594	0	
-0.0378172	-0.269479	0	
-0.0310913	-0.266753	0	
-0.0248932	-0.264415	0	
-0.0192596	-0.262366	0	
-0.0141435	-0.260503	0	
-0.00940666	-0.259006	0	
-0.00486989	-0.258012	0	
-0.000261369	-0.257735	0	
0.00444863	-0.25818	0	
0.00917246	-0.259187	0	
0.014053	-0.260629	0	
0.0191746	-0.262434	0	
0.0247137	-0.264549	0	
0.0308397	-0.266971	0	
0.0376596	-0.269767	0	
0.0452032	-0.272922	0	
0.0534931	-0.27635	0	
0.0626832	-0.280025	0	
0.0730374	-0.283911	0	
0.0846262	-0.287942	0	
0.0975656	-0.291946	0	
0.111941	-0.295688	0	
0.127594	-0.299069	0	
0.14434	-0.302238	0	
0.161726	-0.30513	0	
0.179498	-0.308108	0	
0.1978	-0.311159	0	
0.216685	-0.314252	0	
-0.224034	-0.333233	0	
-0.204882	-0.330231	0	
-0.186394	-0.327282	0	
-0.168477	-0.32423	0	
-0.150965	-0.321176	0	
-0.134112	-0.31792	0	
-0.118229	-0.314417	0	
-0.103548	-0.310505	0	
-0.0902536	-0.306271	0	
-0.07836	-0.302006	0	
-0.0677214	-0.29785	0	
-0.0580624	-0.29389	0	
-0.0493052	-0.29023	0	
-0.0414504	-0.286995	0	
-0.0342834	-0.284166	0	
-0.0276941	-0.281593	0	
-0.0216811	-0.27928	0	
-0.0161003	-0.277364	0	
-0.0107842	-0.275903	0	
-0.0054943	-0.275103	0	
-0.000130559	-0.274956	0	
0.00521955	-0.275316	0	
0.0105497	-0.276209	0	
0.0159295	-0.277601	0	
0.0215245	-0.279425	0	
0.0275079	-0.281651	0	
0.0340994	-0.28427	0	
0.0413982	-0.287264	0	
0.0493844	-0.290587	0	
0.0580158	-0.294177	0	
0.0675613	-0.29809	0	
0.07831	-0.302291	0	
0.0902261	-0.306639	0	
0.103503	-0.310899	0	
0.118169	-0.31482	0	
0.134022	-0.318347	0	
0.150853	-0.321647	0	
0.168356	-0.324582	0	
0.186284	-0.327577	0	
0.204769	-0.330555	0	
0.223916	-0.333556	0	
-0.231031	-0.352798	0	
-0.211612	-0.349882	0	
-0.193	-0.34692	0	
-0.175035	-0.343873	0	
-0.157471	-0.340696	0	
-0.140528	-0.337348	0	