# vtk DataFile Version 4.1
vtk output
ASCII
DATASET UNSTRUCTURED_GRID

POINTS	2501	float
0	0	0	
0	1	0	
0	2	0	
0	3	0	
0	4	0	
0	5	0	
0	6	0	
0	7	0	
0	8	0	
0	9	0	
0	10	0	
0	11	0	
0	12	0	
0	13	0	
0	14	0	
0	15	0	
0	16	0	
0	17	0	
0	18	0	
0	19	0	
0	20	0	
0	21	0	
0	22	0	
0	23	0	
0	24	0	
0	25	0	
0	26	0	
0	27	0	
0	28	0	
0	29	0	
0	30	0	
0	31	0	
0	32	0	
0	33	0	
0	34	0	
0	35	0	
0	36	0	
0	37	0	
0	38	0	
0	39	0	
0	40	0	
1	0	0	
1	1	0	
1	2	0	
1	3	0	
1	4	0	
1	5	0	
1	6	0	
1	7	0	
1	8	0	
1	9	0	
1	10	0	
1	11	0	
1	12	0	
1	13	0	
1	14	0	
1	15	0	
1	16	0	
1	17	0	
1	18	0	
1	19	0	
1	20	0	
1	21	0	
1	22	0	
1	23	0	
1	24	0	
1	25	0	
1	26	0	
1	27	0	
1	28	0	
1	29	0	
1	30	0	
1	31	0	
1	32	0	
1	33	0	
1	34	0	
1	35	0	
1	36	0	
1	37	0	
1	38	0	
1	39	0	
1	40	0	
2	0	0	
2	1	0	
2	2	0	
2	3	0	
2	4	0	
2	5	0	
2	6	0	
2	7	0	
2	8	0	
2	9	0	
2	10	0	
2	11	0	
2	12	0	
2	13	0	
2	14	0	
2	15	0	
2	16	0	
2	17	0	
2	18	0	
2	19	0	
2	20	0	
2	21	0	
2	22	0	
2	23	0	
2	24	0	
2	25	0	
2	26	0	
2	27	0	
2	28	0	
2	29	0	
2	30	0	
2	31	0	
2	32	0	
2	33	0	
2	34	0	
2	35	0	
2	36	0	
2	37	0	
2	38	0	
2	39	0	
2	40	0	
3	0	0	
3	1	0	
3	2	0	
3	3	0	
3	4	0	
3	5	0	
3	6	0	
3	7	0	
3	8	0	
3	9	0	
3	10	0	
3	11	0	
3	12	0	
3	13	0	
3	14	0	
3	15	0	
3	16	0	
3	17	0	
3	18	0	
3	19	0	
3	20	0	
3	21	0	
3	22	0	
3	23	0	
3	24	0	
3	25	0	
3	26	0	
3	27	0	
3	28	0	
3	29	0	
3	30	0	
3	31	0	
3	32	0	
3	33	0	
3	34	0	
3	35	0	
3	36	0	
3	37	0	
3	38	0	
3	39	0	
3	40	0	
4	0	0	
4	1	0	
4	2	0	
4	3	0	
4	4	0	
4	5	0	
4	6	0	
4	7	0	
4	8	0	
4	9	0	
4	10	0	
4	11	0	
4	12	0	
4	13	0	
4	14	0	
4	15	0	
4	16	0	
4	17	0	
4	18	0	
4	19	0	
4	20	0	
4	21	0	
4	22	0	
4	23	0	
4	24	0	
4	25	0	
4	26	0	
4	27	0	
4	28	0	
4	29	0	
4	30	0	
4	31	0	
4	32	0	
4	33	0	
4	34	0	
4	35	0	
4	36	0	
4	37	0	
4	38	0	
4	39	0	
4	40	0	
5	0	0	
5	1	0	
5	2	0	
5	3	0	
5	4	0	
5	5	0	
5	6	0	
5	7	0	
5	8	0	
5	9	0	
5	10	0	
5	11	0	
5	12	0	
5	13	0	
5	14	0	
5	15	0	
5	16	0	
5	17	0	
5	18	0	
5	19	0	
5	20	0	
5	21	0	
5	22	0	
5	23	0	
5	24	0	
5	25	0	
5	26	0	
5	27	0	
5	28	0	
5	29	0	
5	30	0	
5	31	0	
5	32	0	
5	33	0	
5	34	0	
5	35	0	
5	36	0	
5	37	0	
5	38	0	
5	39	0	
5	40	0	
6	0	0	
6	1	0	
6	2	0	
6	3	0	
6	4	0	
6	5	0	
6	6	0	
6	7	0	
6	8	0	
6	9	0	
6	10	0	
6	11	0	
6	12	0	
6	13	0	
6	14	0	
6	15	0	
6	16	0	
6	17	0	
6	18	0	
6	19	0	
6	20	0	
6	21	0	
6	22	0	
6	23	0	
6	24	0	
6	25	0	
6	26	0	
6	27	0	
6	28	0	
6	29	0	
6	30	0	
6	31	0	
6	32	0	
6	33	0	
6	34	0	
6	35	0	
6	36	0	
6	37	0	
6	38	0	
6	39	0	
6	40	0	
7	0	0	
7	1	0	
7	2	0	
7	3	0	
7	4	0	
7	5	0	
7	6	0	
7	7	0	
7	8	0	
7	9	0	
7	10	0	
7	11	0	
7	12	0	
7	13	0	
7	14	0	
7	15	0	
7	16	0	
7	17	0	
7	18	0	
7	19	0	
7	20	0	
7	21	0	
7	22	0	
7	23	0	
7	24	0	
7	25	0	
7	26	0	
7	27	0	
7	28	0	
7	29	0	
7	30	0	
7	31	0	
7	32	0	
7	33	0	
7	34	0	
7	35	0	
7	36	0	
7	37	0	
7	38	0	
7	39	0	
7	40	0	
8	0	0	
8	1	0	
8	2	0	
8	3	0	
8	4	0	
8	5	0	
8	6	0	
8	7	0	
8	8	0	
8	9	0	
8	10	0	
8	11	0	
8	12	0	
8	13	0	
8	14	0	
8	15	0	
8	16	0	
8	17	0	
8	18	0	
8	19	0	
8	20	0	
8	21	0	
8	22	0	
8	23	0	
8	24	0	
8	25	0	
8	26	0	
8	27	0	
8	28	0	
8	29	0	
8	30	0	
8	31	0	
8	32	0	
8	33	0	
8	34	0	
8	35	0	
8	36	0	
8	37	0	
8	38	0	
8	39	0	
8	40	0	
9	0	0	
9	1	0	
9	2	0	
9	3	0	
9	4	0	
9	5	0	
9	6	0	
9	7	0	
9	8	0	
9	9	0	
9	10	0	
9	11	0	
9	12	0	
9	13	0	
9	14	0	
9	15	0	
9	16	0	
9	17	0	
9	18	0	
9	19	0	
9	20	0	
9	21	0	
9	22	0	
9	23	0	
9	24	0	
9	25	0	
9	26	0	
9	27	0	
9	28	0	
9	29	0	
9	30	0	
9	31	0	
9	32	0	
9	33	0	
9	34	0	
9	35	0	
9	36	0	
9	37	0	
9	38	0	
9	39	0	
9	40	0	
10	0	0	
10	1	0	
10	2	0	
10	3	0	
10	4	0	
10	5	0	
10	6	0	
10	7	0	
10	8	0	
10	9	0	
10	10	0	
10	11	0	
10	12	0	
10	13	0	
10	14	0	
10	15	0	
10	16	0	
10	17	0	
10	18	0	
10	19	0	
10	20	0	
10	21	0	
10	22	0	
10	23	0	
10	24	0	
10	25	0	
10	26	0	
10	27	0	
10	28	0	
10	29	0	
10	30	0	
10	31	0	
10	32	0	
10	33	0	
10	34	0	
10	35	0	
10	36	0	
10	37	0	
10	38	0	
10	39	0	
10	40	0	
11	0	0	
11	1	0	
11	2	0	
11	3	0	
11	4	0	
11	5	0	
11	6	0	
11	7	0	
11	8	0	
11	9	0	
11	10	0	
11	11	0	
11	12	0	
11	13	0	
11	14	0	
11	15	0	
11	16	0	
11	17	0	
11	18	0	
11	19	0	
11	20	0	
11	21	0	
11	22	0	
11	23	0	
11	24	0	
11	25	0	
11	26	0	
11	27	0	
11	28	0	
11	29	0	
11	30	0	
11	31	0	
11	32	0	
11	33	0	
11	34	0	
11	35	0	
11	36	0	
11	37	0	
11	38	0	
11	39	0	
11	40	0	
12	0	0	
12	1	0	
12	2	0	
12	3	0	
12	4	0	
12	5	0	
12	6	0	
12	7	0	
12	8	0	
12	9	0	
12	10	0	
12	11	0	
12	12	0	
12	13	0	
12	14	0	
12	15	0	
12	16	0	
12	17	0	
12	18	0	
12	19	0	
12	20	0	
12	21	0	
12	22	0	
12	23	0	
12	24	0	
12	25	0	
12	26	0	
12	27	0	
12	28	0	
12	29	0	
12	30	0	
12	31	0	
12	32	0	
12	33	0	
12	34	0	
12	35	0	
12	36	0	
12	37	0	
12	38	0	
12	39	0	
12	40	0	
13	0	0	
13	1	0	
13	2	0	
13	3	0	
13	4	0	
13	5	0	
13	6	0	
13	7	0	
13	8	0	
13	9	0	
13	10	0	
13	11	0	
13	12	0	
13	13	0	
13	14	0	
13	15	0	
13	16	0	
13	17	0	
13	18	0	
13	19	0	
13	20	0	
13	21	0	
13	22	0	
13	23	0	
13	24	0	
13	25	0	
13	26	0	
13	27	0	
13	28	0	
13	29	0	
13	30	0	
13	31	0	
13	32	0	
13	33	0	
13	34	0	
13	35	0	
13	36	0	
13	37	0	
13	38	0	
13	39	0	
13	40	0	
14	0	0	
14	1	0	
14	2	0	
14	3	0	
14	4	0	
14	5	0	
14	6	0	
14	7	0	
14	8	0	
14	9	0	
14	10	0	
14	11	0	
14	12	0	
14	13	0	
14	14	0	
14	15	0	
14	16	0	
14	17	0	
14	18	0	
14	19	0	
14	20	0	
14	21	0	
14	22	0	
14	23	0	
14	24	0	
14	25	0	
14	26	0	
14	27	0	
14	28	0	
14	29	0	
14	30	0	
14	31	0	
14	32	0	
14	33	0	
14	34	0	
14	35	0	
14	36	0	
14	37	0	
14	38	0	
14	39	0	
14	40	0	
15	0	0	
15	1	0	
15	2	0	
15	3	0	
15	4	0	
15	5	0	
15	6	0	
15	7	0	
15	8	0	
15	9	0	
15	10	0	
15	11	0	
15	12	0	
15	13	0	
15	14	0	
15	15	0	
15	16	0	
15	17	0	
15	18	0	
15	19	0	
15	20	0	
15	21	0	
15	22	0	
15	23	0	
15	24	0	
15	25	0	
15	26	0	
15	27	0	
15	28	0	
15	29	0	
15	30	0	
15	31	0	
15	32	0	
15	33	0	
15	34	0	
15	35	0	
15	36	0	
15	37	0	
15	38	0	
15	39	0	
15	40	0	
16	0	0	
16	1	0	
16	2	0	
16	3	0	
16	4	0	
16	5	0	
16	6	0	
16	7	0	
16	8	0	
16	9	0	
16	10	0	
16	11	0	
16	12	0	
16	13	0	
16	14	0	
16	15	0	
16	16	0	
16	17	0	
16	18	0	
16	19	0	
16	20	0	
16	21	0	
16	22	0	
16	23	0	
16	24	0	
16	25	0	
16	26	0	
16	27	0	
16	28	0	
16	29	0	
16	30	0	
16	31	0	
16	32	0	
16	33	0	
16	34	0	
16	35	0	
16	36	0	
16	37	0	
16	38	0	
16	39	0	
16	40	0	
17	0	0	
17	1	0	
17	2	0	
17	3	0	
17	4	0	
17	5	0	
17	6	0	
17	7	0	
17	8	0	
17	9	0	
17	10	0	
17	11	0	
17	12	0	
17	13	0	
17	14	0	
17	15	0	
17	16	0	
17	17	0	
17	18	0	
17	19	0	
17	20	0	
17	21	0	
17	22	0	
17	23	0	
17	24	0	
17	25	0	
17	26	0	
17	27	0	
17	28	0	
17	29	0	
17	30	0	
17	31	0	
17	32	0	
17	33	0	
17	34	0	
17	35	0	
17	36	0	
17	37	0	
17	38	0	
17	39	0	
17	40	0	
18	0	0	
18	1	0	
18	2	0	
18	3	0	
18	4	0	
18	5	0	
18	6	0	
18	7	0	
18	8	0	
18	9	0	
18	10	0	
18	11	0	
18	12	0	
18	13	0	
18	14	0	
18	15	0	
18	16	0	
18	17	0	
18	18	0	
18	19	0	
18	20	0	
18	21	0	
18	22	0	
18	23	0	
18	24	0	
18	25	0	
18	26	0	
18	27	0	
18	28	0	
18	29	0	
18	30	0	
18	31	0	
18	32	0	
18	33	0	
18	34	0	
18	35	0	
18	36	0	
18	37	0	
18	38	0	
18	39	0	
18	40	0	
19	0	0	
19	1	0	
19	2	0	
19	3	0	
19	4	0	
19	5	0	
19	6	0	
19	7	0	
19	8	0	
19	9	0	
19	10	0	
19	11	0	
19	12	0	
19	13	0	
19	14	0	
19	15	0	
19	16	0	
19	17	0	
19	18	0	
19	19	0	
19	20	0	
19	21	0	
19	22	0	
19	23	0	
19	24	0	
19	25	0	
19	26	0	
19	27	0	
19	28	0	
19	29	0	
19	30	0	
19	31	0	
19	32	0	
19	33	0	
19	34	0	
19	35	0	
19	36	0	
19	37	0	
19	38	0	
19	39	0	
19	40	0	
20	0	0	
20	1	0	
20	2	0	
20	3	0	
20	4	0	
20	5	0	
20	6	0	
20	7	0	
20	8	0	
20	9	0	
20	10	0	
20	11	0	
20	12	0	
20	13	0	
20	14	0	
20	15	0	
20	16	0	
20	17	0	
20	18	0	
20	19	0	
20	20	0	
20	21	0	
20	22	0	
20	23	0	
20	24	0	
20	25	0	
20	26	0	
20	27	0	
20	28	0	
20	29	0	
20	30	0	
20	31	0	
20	32	0	
20	33	0	
20	34	0	
20	35	0	
20	36	0	
20	37	0	
20	38	0	
20	39	0	
20	40	0	
21	0	0	
21	1	0	
21	2	0	
21	3	0	
21	4	0	
21	5	0	
21	6	0	
21	7	0	
21	8	0	
21	9	0	
21	10	0	
21	11	0	
21	12	0	
21	13	0	
21	14	0	
21	15	0	
21	16	0	
21	17	0	
21	18	0	
21	19	0	
21	20	0	
21	21	0	
21	22	0	
21	23	0	
21	24	0	
21	25	0	
21	26	0	
21	27	0	
21	28	0	
21	29	0	
21	30	0	
21	31	0	
21	32	0	
21	33	0	
21	34	0	
21	35	0	
21	36	0	
21	37	0	
21	38	0	
21	39	0	
21	40	0	
22	0	0	
22	1	0	
22	2	0	
22	3	0	
22	4	0	
22	5	0	
22	6	0	
22	7	0	
22	8	0	
22	9	0	
22	10	0	
22	11	0	
22	12	0	
22	13	0	
22	14	0	
22	15	0	
22	16	0	
22	17	0	
22	18	0	
22	19	0	
22	20	0	
22	21	0	
22	22	0	
22	23	0	
22	24	0	
22	25	0	
22	26	0	
22	27	0	
22	28	0	
22	29	0	
22	30	0	
22	31	0	
22	32	0	
22	33	0	
22	34	0	
22	35	0	
22	36	0	
22	37	0	
22	38	0	
22	39	0	
22	40	0	
23	0	0	
23	1	0	
23	2	0	
23	3	0	
23	4	0	
23	5	0	
23	6	0	
23	7	0	
23	8	0	
23	9	0	
23	10	0	
23	11	0	
23	12	0	
23	13	0	
23	14	0	
23	15	0	
23	16	0	
23	17	0	
23	18	0	
23	19	0	
23	20	0	
23	21	0	
23	22	0	
23	23	0	
23	24	0	
23	25	0	
23	26	0	
23	27	0	
23	28	0	
23	29	0	
23	30	0	
23	31	0	
23	32	0	
23	33	0	
23	34	0	
23	35	0	
23	36	0	
23	37	0	
23	38	0	
23	39	0	
23	40	0	
24	0	0	
24	1	0	
24	2	0	
24	3	0	
24	4	0	
24	5	0	
24	6	0	
24	7	0	
24	8	0	
24	9	0	
24	10	0	
24	11	0	
24	12	0	
24	13	0	
24	14	0	
24	15	0	
24	16	0	
24	17	0	
24	18	0	
24	19	0	
24	20	0	
24	21	0	
24	22	0	
24	23	0	
24	24	0	
24	25	0	
24	26	0	
24	27	0	
24	28	0	
24	29	0	
24	30	0	
24	31	0	
24	32	0	
24	33	0	
24	34	0	
24	35	0	
24	36	0	
24	37	0	
24	38	0	
24	39	0	
24	40	0	
25	0	0	
25	1	0	
25	2	0	
25	3	0	
25	4	0	
25	5	0	
25	6	0	
25	7	0	
25	8	0	
25	9	0	
25	10	0	
25	11	0	
25	12	0	
25	13	0	
25	14	0	
25	15	0	
25	16	0	
25	17	0	
25	18	0	
25	19	0	
25	20	0	
25	21	0	
25	22	0	
25	23	0	
25	24	0	
25	25	0	
25	26	0	
25	27	0	
25	28	0	
25	29	0	
25	30	0	
25	31	0	
25	32	0	
25	33	0	
25	34	0	
25	35	0	
25	36	0	
25	37	0	
25	38	0	
25	39	0	
25	40	0	
26	0	0	
26	1	0	
26	2	0	
26	3	0	
26	4	0	
26	5	0	
26	6	0	
26	7	0	
26	8	0	
26	9	0	
26	10	0	
26	11	0	
26	12	0	
26	13	0	
26	14	0	
26	15	0	
26	16	0	
26	17	0	
26	18	0	
26	19	0	
26	20	0	
26	21	0	
26	22	0	
26	23	0	
26	24	0	
26	25	0	
26	26	0	
26	27	0	
26	28	0	
26	29	0	
26	30	0	
26	31	0	
26	32	0	
26	33	0	
26	34	0	
26	35	0	
26	36	0	
26	37	0	
26	38	0	
26	39	0	
26	40	0	
27	0	0	
27	1	0	
27	2	0	
27	3	0	
27	4	0	
27	5	0	
27	6	0	
27	7	0	
27	8	0	
27	9	0	
27	10	0	
27	11	0	
27	12	0	
27	13	0	
27	14	0	
27	15	0	
27	16	0	
27	17	0	
27	18	0	
27	19	0	
27	20	0	
27	21	0	
27	22	0	
27	23	0	
27	24	0	
27	25	0	
27	26	0	
27	27	0	
27	28	0	
27	29	0	
27	30	0	
27	31	0	
27	32	0	
27	33	0	
27	34	0	
27	35	0	
27	36	0	
27	37	0	
27	38	0	
27	39	0	
27	40	0	
28	0	0	
28	1	0	
28	2	0	
28	3	0	
28	4	0	
28	5	0	
28	6	0	
28	7	0	
28	8	0	
28	9	0	
28	10	0	
28	11	0	
28	12	0	
28	13	0	
28	14	0	
28	15	0	
28	16	0	
28	17	0	
28	18	0	
28	19	0	
28	20	0	
28	21	0	
28	22	0	
28	23	0	
28	24	0	
28	25	0	
28	26	0	
28	27	0	
28	28	0	
28	29	0	
28	30	0	
[...]
POINT_DATA	2501
VECTORS u float
0	0	0	
0	0	0	
0	0	0	
0	0	0	
0	0	0	
0	0	0	
0	0	0	
0	0	0	
0	0	0	
0	0	0	
0	0	0	
0	0	0	
0	0	0	
0	0	0	
0	0	0	
0	0	0	
0	0	0	
0	0	0	
0	0	0	
0	0	0	
0	0	0	
0	0	0	
0	0	0	
0	0	0	
0	0	0	
0	0	0	
0	0	0	
0	0	0	
0	0	0	
0	0	0	
0	0	0	
0	0	0	
0	0	0	
0	0	0	
0	0	0	
0	0	0	
0	0	0	
0	0	0	
0	0	0	
0	0	0	
0	0	0	
-2.63348e-006	-2.46662e-006	0	
-1.50786e-006	-1.62449e-006	0	
-1.15963e-006	-1.29503e-006	0	
-9.25522e-007	-1.12372e-006	0	
-7.4702e-007	-1.00654e-006	0	
-5.76349e-007	-8.99122e-007	0	
-2.22976e-007	-8.19049e-007	0	
2.40795e-008	-9.58177e-007	0	
3.84462e-007	-1.11813e-006	0	
1.32605e-007	-1.26118e-006	0	
8.88837e-008	-1.39397e-006	0	
4.56696e-008	-1.44374e-006	0	
4.49624e-008	-1.49155e-006	0	
4.13105e-008	-1.53495e-006	0	
3.5741e-008	-1.56951e-006	0	
2.95602e-008	-1.59574e-006	0	
2.33583e-008	-1.61486e-006	0	
1.73754e-008	-1.62848e-006	0	
1.15083e-008	-1.63759e-006	0	
5.72869e-009	-1.64282e-006	0	
1.1536e-018	-1.64452e-006	0	
-5.72869e-009	-1.64282e-006	0	
-1.15083e-008	-1.63759e-006	0	
-1.73754e-008	-1.62848e-006	0	
-2.33583e-008	-1.61486e-006	0	
-2.95602e-008	-1.59574e-006	0	
-3.5741e-008	-1.56951e-006	0	
-4.13105e-008	-1.53495e-006	0	
-4.49624e-008	-1.49155e-006	0	
-4.56696e-008	-1.44374e-006	0	
-8.88837e-008	-1.39397e-006	0	
-1.32605e-007	-1.26118e-006	0	
-3.84462e-007	-1.11813e-006	0	
-2.40795e-008	-9.58177e-007	0	
2.22976e-007	-8.19049e-007	0	
5.76349e-007	-8.99122e-007	0	
7.4702e-007	-1.00654e-006	0	
9.25522e-007	-1.12372e-006	0	
1.15963e-006	-1.29503e-006	0	
1.50786e-006	-1.62449e-006	0	
2.63348e-006	-2.46662e-006	0	
-4.58761e-006	-4.15387e-006	0	
-3.22649e-006	-3.46581e-006	0	
-2.42575e-006	-2.92303e-006	0	
-1.92937e-006	-2.5955e-006	0	
-1.5477e-006	-2.39123e-006	0	
-1.18903e-006	-2.27366e-006	0	
-7.12027e-007	-2.18901e-006	0	
-1.26192e-007	-2.12903e-006	0	
2.15696e-007	-2.31437e-006	0	
5.11952e-007	-2.58255e-006	0	
1.59898e-007	-2.75134e-006	0	
1.39591e-007	-2.88007e-006	0	
1.26073e-007	-2.99569e-006	0	
1.0966e-007	-3.08139e-006	0	
9.13545e-008	-3.14637e-006	0	
7.33869e-008	-3.19357e-006	0	
5.72725e-008	-3.22851e-006	0	
4.21359e-008	-3.25368e-006	0	
2.76805e-008	-3.27059e-006	0	
1.37086e-008	-3.28031e-006	0	
2.40003e-018	-3.28347e-006	0	
-1.37086e-008	-3.28031e-006	0	
-2.76805e-008	-3.27059e-006	0	
-4.21359e-008	-3.25368e-006	0	
-5.72725e-008	-3.22851e-006	0	
-7.33869e-008	-3.19357e-006	0	
-9.13545e-008	-3.14637e-006	0	
-1.0966e-007	-3.08139e-006	0	
-1.26073e-007	-2.99569e-006	0	
-1.39591e-007	-2.88007e-006	0	
-1.59898e-007	-2.75134e-006	0	
-5.11952e-007	-2.58255e-006	0	
-2.15696e-007	-2.31437e-006	0	
1.26192e-007	-2.12903e-006	0	
7.12027e-007	-2.18901e-006	0	
1.18903e-006	-2.27366e-006	0	
1.5477e-006	-2.39123e-006	0	
1.92937e-006	-2.5955e-006	0	
2.42575e-006	-2.92303e-006	0	
3.22649e-006	-3.46581e-006	0	
4.58761e-006	-4.15387e-006	0	
-6.22049e-006	-5.8309e-006	0	
-4.77235e-006	-5.19644e-006	0	
-3.72623e-006	-4.65982e-006	0	
-2.96787e-006	-4.26449e-006	0	
-2.37012e-006	-4.0096e-006	0	
-1.8261e-006	-3.86266e-006	0	
-1.25965e-006	-3.7863e-006	0	
-5.53128e-007	-3.74028e-006	0	
7.33124e-009	-3.88308e-006	0	
2.82118e-007	-4.1257e-006	0	
3.01113e-007	-4.16219e-006	0	
2.79149e-007	-4.38724e-006	0	
2.4051e-007	-4.54088e-006	0	
2.0015e-007	-4.66179e-006	0	
1.59402e-007	-4.74156e-006	0	
1.27815e-007	-4.8022e-006	0	
9.928e-008	-4.84843e-006	0	
7.26274e-008	-4.88201e-006	0	
4.74631e-008	-4.90464e-006	0	
2.34215e-008	-4.91763e-006	0	
3.53345e-018	-4.92187e-006	0	
-2.34215e-008	-4.91763e-006	0	
-4.74631e-008	-4.90464e-006	0	
-7.26274e-008	-4.88201e-006	0	
-9.928e-008	-4.84843e-006	0	
-1.27815e-007	-4.8022e-006	0	
-1.59402e-007	-4.74156e-006	0	
-2.0015e-007	-4.66179e-006	0	
-2.4051e-007	-4.54088e-006	0	
-2.79149e-007	-4.38724e-006	0	
-3.01113e-007	-4.16219e-006	0	
-2.82118e-007	-4.1257e-006	0	
-7.33124e-009	-3.88308e-006	0	
5.53128e-007	-3.74028e-006	0	
1.25965e-006	-3.7863e-006	0	
1.8261e-006	-3.86266e-006	0	
2.37012e-006	-4.0096e-006	0	
2.96787e-006	-4.26449e-006	0	
3.72623e-006	-4.65982e-006	0	
4.77235e-006	-5.19644e-006	0	
6.22049e-006	-5.8309e-006	0	
-7.67553e-006	-7.49447e-006	0	
-6.16333e-006	-6.92136e-006	0	
-4.95564e-006	-6.41471e-006	0	
-3.994e-006	-6.01875e-006	0	
-3.19788e-006	-5.7444e-006	0	
-2.48972e-006	-5.57689e-006	0	
-1.80281e-006	-5.48431e-006	0	
-1.04805e-006	-5.39922e-006	0	
-1.41503e-007	-5.26828e-006	0	
1.44955e-008	-5.50529e-006	0	
5.19328e-007	-5.7739e-006	0	
4.3968e-007	-5.97185e-006	0	
3.83224e-007	-6.18492e-006	0	
2.85275e-007	-6.27962e-006	0	
2.33569e-007	-6.35909e-006	0	
1.88622e-007	-6.42726e-006	0	
1.46332e-007	-6.47992e-006	0	
1.06583e-007	-6.51833e-006	0	
6.93383e-008	-6.54404e-006	0	
3.41455e-008	-6.55883e-006	0	
4.89796e-018	-6.56366e-006	0	
-3.41455e-008	-6.55883e-006	0	
-6.93383e-008	-6.54404e-006	0	
-1.06583e-007	-6.51833e-006	0	
-1.46332e-007	-6.47992e-006	0	
-1.88622e-007	-6.42726e-006	0	
-2.33569e-007	-6.35909e-006	0	
-2.85275e-007	-6.27962e-006	0	
-3.83224e-007	-6.18492e-006	0	
-4.3968e-007	-5.97185e-006	0	
-5.19328e-007	-5.7739e-006	0	
-1.44955e-008	-5.50529e-006	0	
1.41503e-007	-5.26828e-006	0	
1.04805e-006	-5.39922e-006	0	
1.80281e-006	-5.48431e-006	0	
2.48972e-006	-5.57689e-006	0	
3.19788e-006	-5.7444e-006	0	
3.994e-006	-6.01875e-006	0	
4.95564e-006	-6.41471e-006	0	
6.16333e-006	-6.92136e-006	0	
7.67553e-006	-7.49447e-006	0	
-8.99614e-006	-9.17518e-006	0	
-7.42967e-006	-8.64948e-006	0	
-6.09935e-006	-8.17986e-006	0	
-4.97468e-006	-7.8022e-006	0	
-4.00974e-006	-7.53216e-006	0	
-3.15354e-006	-7.36482e-006	0	
-2.35516e-006	-7.28223e-006	0	
-1.57154e-006	-7.26297e-006	0	
-7.42099e-007	-7.25921e-006	0	
-3.69358e-007	-7.45853e-006	0	
3.14969e-007	-7.63647e-006	0	
7.36139e-007	-7.87013e-006	0	
4.25298e-007	-7.85917e-006	0	
3.65185e-007	-7.91302e-006	0	
3.1081e-007	-8.00007e-006	0	
2.52494e-007	-8.0715e-006	0	
1.95168e-007	-8.12683e-006	0	
1.41078e-007	-8.16541e-006	0	
9.16159e-008	-8.19139e-006	0	
4.50952e-008	-8.20652e-006	0	
5.97748e-018	-8.2115e-006	0	
-4.50952e-008	-8.20652e-006	0	
-9.16159e-008	-8.19139e-006	0	
-1.41078e-007	-8.16541e-006	0	
-1.95168e-007	-8.12683e-006	0	
-2.52494e-007	-8.0715e-006	0	
-3.1081e-007	-8.00007e-006	0	
-3.65185e-007	-7.91302e-006	0	
-4.25298e-007	-7.85917e-006	0	
-7.36139e-007	-7.87013e-006	0	
-3.14969e-007	-7.63647e-006	0	
3.69358e-007	-7.45853e-006	0	
7.42099e-007	-7.25921e-006	0	
1.57154e-006	-7.26297e-006	0	
2.35516e-006	-7.28223e-006	0	
3.15354e-006	-7.36482e-006	0	
4.00974e-006	-7.53216e-006	0	
4.97468e-006	-7.8022e-006	0	
6.09935e-006	-8.17986e-006	0	
7.42967e-006	-8.64948e-006	0	
8.99614e-006	-9.17518e-006	0	
-1.02145e-005	-1.0873e-005	0	
-8.59824e-006	-1.03843e-005	0	
-7.16333e-006	-9.94668e-006	0	
-5.89983e-006	-9.59182e-006	0	
-4.78729e-006	-9.33538e-006	0	
-3.7982e-006	-9.17542e-006	0	
-2.89958e-006	-9.09481e-006	0	
-2.05781e-006	-9.06721e-006	0	
-1.29219e-006	-9.05561e-006	0	
-5.88064e-007	-9.06875e-006	0	
1.46252e-007	-9.22146e-006	0	
5.04355e-007	-9.45918e-006	0	
4.74907e-007	-9.42837e-006	0	
4.57271e-007	-9.57274e-006	0	
3.91745e-007	-9.66414e-006	0	
3.17353e-007	-9.74168e-006	0	
2.3992e-007	-9.78924e-006	0	
1.73385e-007	-9.82342e-006	0	
1.12803e-007	-9.84755e-006	0	
5.5663e-008	-9.86205e-006	0	
7.44873e-018	-9.86692e-006	0	
-5.5663e-008	-9.86205e-006	0	
-1.12803e-007	-9.84755e-006	0	
-1.73385e-007	-9.82342e-006	0	
-2.3992e-007	-9.78924e-006	0	
-3.17353e-007	-9.74168e-006	0	
-3.91745e-007	-9.66414e-006	0	
-4.57271e-007	-9.57274e-006	0	
-4.74907e-007	-9.42837e-006	0	
-5.04355e-007	-9.45918e-006	0	
-1.46252e-007	-9.22146e-006	0	
5.88064e-007	-9.06875e-006	0	
1.29219e-006	-9.05561e-006	0	
2.05781e-006	-9.06721e-006	0	
2.89958e-006	-9.09481e-006	0	
3.7982e-006	-9.17542e-006	0	
4.78729e-006	-9.33538e-006	0	
5.89983e-006	-9.59182e-006	0	
7.16333e-006	-9.94668e-006	0	
8.59824e-006	-1.03843e-005	0	
1.02145e-005	-1.0873e-005	0	
-1.13586e-005	-1.25896e-005	0	
-9.69206e-006	-1.2127e-005	0	
-8.16018e-006	-1.1713e-005	0	
-6.76947e-006	-1.13766e-005	0	
-5.52116e-006	-1.11344e-005	0	
-4.41301e-006	-1.09839e-005	0	
-3.43186e-006	-1.09022e-005	0	
-2.55491e-006	-1.08528e-005	0	
-1.76212e-006	-1.0811e-005	0	
-9.54975e-007	-1.07576e-005	0	
2.13623e-009	-1.06625e-005	0	
2.42901e-007	-1.08897e-005	0	
6.30679e-007	-1.11752e-005	0	
5.51255e-007	-1.12578e-005	0	
4.87879e-007	-1.13911e-005	0	
3.6333e-007	-1.14304e-005	0	
2.7718e-007	-1.14618e-005	0	
2.01638e-007	-1.14902e-005	0	
1.32255e-007	-1.15119e-005	0	
6.57717e-008	-1.15259e-005	0	
8.40957e-018	-1.15308e-005	0	
-6.57717e-008	-1.15259e-005	0	
-1.32255e-007	-1.15119e-005	0	
-2.01638e-007	-1.14902e-005	0	
-2.7718e-007	-1.14618e-005	0	
-3.6333e-007	-1.14304e-005	0	
-4.87879e-007	-1.13911e-005	0	
-5.51255e-007	-1.12578e-005	0	
-6.30679e-007	-1.11752e-005	0	
-2.42901e-007	-1.08897e-005	0	
-2.13623e-009	-1.06625e-005	0	
9.54975e-007	-1.07576e-005	0	
1.76212e-006	-1.0811e-005	0	
2.55491e-006	-1.08528e-005	0	
3.43186e-006	-1.09022e-005	0	
4.41301e-006	-1.09839e-005	0	
5.52116e-006	-1.11344e-005	0	
6.76947e-006	-1.13766e-005	0	
8.16018e-006	-1.1713e-005	0	
9.69206e-006	-1.2127e-005	0	
1.13586e-005	-1.25896e-005	0	
-1.24536e-005	-1.43325e-005	0	
-1.07316e-005	-1.38862e-005	0	
-9.10578e-006	-1.34846e-005	0	
-7.59061e-006	-1.31552e-005	0	
-6.20591e-006	-1.29211e-005	0	
-4.98276e-006	-1.2784e-005	0	
-3.9367e-006	-1.27134e-005	0	
-3.03582e-006	-1.26703e-005	0	
-2.21765e-006	-1.26416e-005	0	
-1.41404e-006	-1.26332e-005	0	
-5.49173e-007	-1.26196e-005	0	
-1.21142e-007	-1.27989e-005	0	
3.87111e-007	-1.30057e-005	0	
7.82004e-007	-1.31835e-005	0	
4.92858e-007	-1.3116e-005	0	
3.95087e-007	-1.31099e-005	0	
3.06708e-007	-1.31384e-005	0	
2.25764e-007	-1.31618e-005	0	
1.5114e-007	-1.31834e-005	0	
7.61531e-008	-1.31986e-005	0	
9.95075e-018	-1.32041e-005	0	
-7.61531e-008	-1.31986e-005	0	
-1.5114e-007	-1.31834e-005	0	
-2.25764e-007	-1.31618e-005	0	
-3.06708e-007	-1.31384e-005	0	
-3.95087e-007	-1.31099e-005	0	
-4.92858e-007	-1.3116e-005	0	
-7.82004e-007	-1.31835e-005	0	
-3.87111e-007	-1.30057e-005	0	
1.21142e-007	-1.27989e-005	0	
5.49173e-007	-1.26196e-005	0	
1.41404e-006	-1.26332e-005	0	
2.21765e-006	-1.26416e-005	0	
3.03582e-006	-1.26703e-005	0	
3.9367e-006	-1.27134e-005	0	
4.98276e-006	-1.2784e-005	0	
6.20591e-006	-1.29211e-005	0	
7.59061e-006	-1.31552e-005	0	
9.10578e-006	-1.34846e-005	0	
1.07316e-005	-1.38862e-005	0	
1.24536e-005	-1.43325e-005	0	
-1.35187e-005	-1.61172e-005	0	
-1.17341e-005	-1.56802e-005	0	
-1.00193e-005	-1.52797e-005	0	
-8.38038e-006	-1.49373e-005	0	
-6.84042e-006	-1.46915e-005	0	
-5.48294e-006	-1.4568e-005	0	
-4.38988e-006	-1.45208e-005	0	
-3.48979e-006	-1.44858e-005	0	
-2.66924e-006	-1.44503e-005	0	
-1.8654e-006	-1.44213e-005	0	
-1.08901e-006	-1.43791e-005	0	
-3.28719e-007	-1.43336e-005	0	
1.81353e-007	-1.45206e-005	0	
6.12069e-007	-1.47344e-005	0	
5.14922e-007	-1.47034e-005	0	
4.31063e-007	-1.47919e-005	0	
3.25717e-007	-1.48105e-005	0	
2.50484e-007	-1.48358e-005	0	
1.72558e-007	-1.48629e-005	0	
8.82516e-008	-1.48817e-005	0	
1.0691e-017	-1.48885e-005	0	
-8.82516e-008	-1.48817e-005	0	
-1.72558e-007	-1.48629e-005	0	
-2.50484e-007	-1.48358e-005	0	
-3.25717e-007	-1.48105e-005	0	
-4.31063e-007	-1.47919e-005	0	
-5.14922e-007	-1.47034e-005	0	
-6.12069e-007	-1.47344e-005	0	
-1.81353e-007	-1.45206e-005	0	
3.28719e-007	-1.43336e-005	0	
1.08901e-006	-1.43791e-005	0	
1.8654e-006	-1.44213e-005	0	
2.66924e-006	-1.44503e-005	0	
3.48979e-006	-1.44858e-005	0	
4.38988e-006	-1.45208e-005	0	
5.48294e-006	-1.4568e-005	0	
6.84042e-006	-1.46915e-005	0	
8.38038e-006	-1.49373e-005	0	
1.00193e-005	-1.52797e-005	0	
1.17341e-005	-1.56802e-005	0	
1.35187e-005	-1.61172e-005	0	
-1.45623e-005	-1.79627e-005	0	
-1.27106e-005	-1.75331e-005	0	
-1.09182e-005	-1.71297e-005	0	
-9.16995e-006	-1.67594e-005	0	
-7.4485e-006	-1.64579e-005	0	
-5.87548e-006	-1.63102e-005	0	
-4.77326e-006	-1.62871e-005	0	
-3.92824e-006	-1.6259e-005	0	
-3.12828e-006	-1.62124e-005	0	
-2.33913e-006	-1.6163e-005	0	
-1.57198e-006	-1.61141e-005	0	
-7.77416e-007	-1.60563e-005	0	
-1.08268e-008	-1.60101e-005	0	
3.81421e-007	-1.62228e-005	0	
6.73991e-007	-1.65042e-005	0	
4.0865e-007	-1.64657e-005	0	
3.48428e-007	-1.64741e-005	0	
2.83665e-007	-1.65177e-005	0	
2.00072e-007	-1.65536e-005	0	
1.03617e-007	-1.65779e-005	0	
1.22243e-017	-1.65858e-005	0	
-1.03617e-007	-1.65779e-005	0	
-2.00072e-007	-1.65536e-005	0	
-2.83665e-007	-1.65177e-005	0	
-3.48428e-007	-1.64741e-005	0	
-4.0865e-007	-1.64657e-005	0	
-6.73991e-007	-1.65042e-005	0	
-3.81421e-007	-1.62228e-005	0	
1.08268e-008	-1.60101e-005	0	
7.77416e-007	-1.60563e-005	0	
1.57198e-006	-1.61141e-005	0	
2.33913e-006	-1.6163e-005	0	
3.12828e-006	-1.62124e-005	0	
3.92824e-006	-1.6259e-005	0	
4.77326e-006	-1.62871e-005	0	
5.87548e-006	-1.63102e-005	0	
7.4485e-006	-1.64579e-005	0	
9.16995e-006	-1.67594e-005	0	
1.09182e-005	-1.71297e-005	0	
1.27106e-005	-1.75331e-005	0	
1.45623e-005	-1.79627e-005	0	
-1.5581e-005	-1.9882e-005	0	
-1.36643e-005	-1.94632e-005	0	
-1.18082e-005	-1.90632e-005	0	
-9.97912e-006	-1.86816e-005	0	
-8.1005e-006	-1.83272e-005	0	
-6.20577e-006	-1.80361e-005	0	
-5.09854e-006	-1.79706e-005	0	
-4.35957e-006	-1.79651e-005	0	
-3.58699e-006	-1.7935e-005	0	
-2.8112e-006	-1.78949e-005	0	
-2.04011e-006	-1.78522e-005	0	
-1.27279e-006	-1.7812e-005	0	
-4.47527e-007	-1.77737e-005	0	
1.45866e-007	-1.79185e-005	0	
3.98328e-007	-1.81714e-005	0	
4.00381e-007	-1.80668e-005	0	
3.95578e-007	-1.81594e-005	0	
3.29869e-007	-1.82141e-005	0	
2.37104e-007	-1.82642e-005	0	
1.2075e-007	-1.82877e-005	0	
1.26006e-017	-1.82954e-005	0	
-1.2075e-007	-1.82877e-005	0	
-2.37104e-007	-1.82642e-005	0	
-3.29869e-007	-1.82141e-005	0	
-3.95578e-007	-1.81594e-005	0	
-4.00381e-007	-1.80668e-005	0	
-3.98328e-007	-1.81714e-005	0	
-1.45866e-007	-1.79185e-005	0	
4.47527e-007	-1.77737e-005	0	
1.27279e-006	-1.7812e-005	0	
2.04011e-006	-1.78522e-005	0	
2.8112e-006	-1.78949e-005	0	
3.58699e-006	-1.7935e-005	0	
4.35957e-006	-1.79651e-005	0	
5.09854e-006	-1.79706e-005	0	
6.20577e-006	-1.80361e-005	0	
8.1005e-006	-1.83272e-005	0	
9.97912e-006	-1.86816e-005	0	
1.18082e-005	-1.90632e-005	0	
1.36643e-005	-1.94632e-005	0	
1.5581e-005	-1.9882e-005	0	
-1.65639e-005	-2.18732e-005	0	
-1.45924e-005	-2.147e-005	0	
-1.26865e-005	-2.10823e-005	0	
-1.07959e-005	-2.07116e-005	0	
-8.85245e-006	-2.03594e-005	0	
-6.83743e-006	-2.00204e-005	0	
-5.47886e-006	-1.97041e-005	0	
-4.81628e-006	-1.9686e-005	0	
-4.03409e-006	-1.965e-005	0	
-3.27721e-006	-1.96152e-005	0	
-2.50911e-006	-1.95764e-005	0	
-1.73895e-006	-1.95355e-005	0	
-9.28708e-007	-1.94585e-005	0	
-1.20441e-008	-1.93223e-005	0	
1.21628e-007	-1.955e-005	0	
5.00098e-007	-1.9825e-005	0	
4.50076e-007	-1.98623e-005	0	
4.03443e-007	-1.99655e-005	0	
2.68562e-007	-1.99882e-005	0	
1.40238e-007	-2.00058e-005	0	
1.4001e-017	-2.00142e-005	0	
-1.40238e-007	-2.00058e-005	0	
-2.68562e-007	-1.99882e-005	0	
-4.03443e-007	-1.99655e-005	0	
-4.50076e-007	-1.98623e-005	0	
-5.00098e-007	-1.9825e-005	0	
-1.21628e-007	-1.955e-005	0	
1.20441e-008	-1.93223e-005	0	
9.28708e-007	-1.94585e-005	0	
1.73895e-006	-1.95355e-005	0	
2.50911e-006	-1.95764e-005	0	
3.27721e-006	-1.96152e-005	0	
4.03409e-006	-1.965e-005	0	
4.81628e-006	-1.9686e-005	0	
5.47886e-006	-1.97041e-005	0	
6.83743e-006	-2.00204e-005	0	
8.85245e-006	-2.03594e-005	0	
1.07959e-005	-2.07116e-005	0	
1.26865e-005	-2.10823e-005	0	
1.45924e-005	-2.147e-005	0	
1.65639e-005	-2.18732e-005	0	
-1.75004e-005	-2.39186e-005	0	
-1.54917e-005	-2.35338e-005	0	
-1.35502e-005	-2.31605e-005	0	
-1.16215e-005	-2.27988e-005	0	
-9.64803e-006	-2.24461e-005	0	
-7.61739e-006	-2.20947e-005	0	
-5.71503e-006	-2.12359e-005	0	
-5.23857e-006	-2.13859e-005	0	
-4.49097e-006	-2.13511e-005	0	
-3.73812e-006	-2.13203e-005	0	
-2.96783e-006	-2.13032e-005	0	
-2.20105e-006	-2.12846e-005	0	
-1.4283e-006	-2.1272e-005	0	
-6.09608e-007	-2.12496e-005	0	
-2.54975e-007	-2.14275e-005	0	
2.66197e-007	-2.16203e-005	0	
6.3626e-007	-2.18054e-005	0	
4.02781e-007	-2.17049e-005	0	
3.05947e-007	-2.16964e-005	0	
1.65972e-007	-2.17263e-005	0	
1.38665e-017	-2.17357e-005	0	
-1.65972e-007	-2.17263e-005	0	
-3.05947e-007	-2.16964e-005	0	
-4.02781e-007	-2.17049e-005	0	
-6.3626e-007	-2.18054e-005	0	
-2.66197e-007	-2.16203e-005	0	
2.54975e-007	-2.14275e-005	0	
6.09608e-007	-2.12496e-005	0	
1.4283e-006	-2.1272e-005	0	
2.20105e-006	-2.12846e-005	0	
2.96783e-006	-2.13032e-005	0	
3.73812e-006	-2.13203e-005	0	
4.49097e-006	-2.13511e-005	0	
5.23857e-006	-2.13859e-005	0	
5.71503e-006	-2.12359e-005	0	
7.61739e-006	-2.20947e-005	0	
9.64803e-006	-2.24461e-005	0	
1.16215e-005	-2.27988e-005	0	
1.35502e-005	-2.31605e-005	0	
1.54917e-005	-2.35338e-005	0	
1.75004e-005	-2.39186e-005	0	
-1.83859e-005	-2.59914e-005	0	
-1.63609e-005	-2.56252e-005	0	
-1.44009e-005	-2.52657e-005	0	
-1.24579e-005	-2.49112e-005	0	
-1.04785e-005	-2.45541e-005	0	
-8.44901e-006	-2.41899e-005	0	
-6.34844e-006	-2.32912e-005	0	
-5.43736e-006	-2.28872e-005	0	
-5.00111e-006	-2.30525e-005	0	
-4.18085e-006	-2.30399e-005	0	
-3.41635e-006	-2.3033e-005	0	
-2.65799e-006	-2.30152e-005	0	
-1.89432e-006	-2.29937e-005	0	
-1.16399e-006	-2.29563e-005	0	
-4.62133e-007	-2.29231e-005	0	
7.63484e-008	-2.30996e-005	0	
4.40023e-007	-2.33207e-005	0	
4.4817e-007	-2.32837e-005	0	
3.78877e-007	-2.33962e-005	0	
2.04583e-007	-2.34394e-005	0	
1.51035e-017	-2.34645e-005	0	
-2.04583e-007	-2.34394e-005	0	
-3.78877e-007	-2.33962e-005	0	
-4.4817e-007	-2.32837e-005	0	
-4.40023e-007	-2.33207e-005	0	
-7.63484e-008	-2.30996e-005	0	
4.62133e-007	-2.29231e-005	0	
1.16399e-006	-2.29563e-005	0	
1.89432e-006	-2.29937e-005	0	
2.65799e-006	-2.30152e-005	0	
3.41635e-006	-2.3033e-005	0	
4.18085e-006	-2.30399e-005	0	
5.00111e-006	-2.30525e-005	0	
5.43736e-006	-2.28872e-005	0	
6.34844e-006	-2.32912e-005	0	
8.44901e-006	-2.41899e-005	0	
1.04785e-005	-2.45541e-005	0	
1.24579e-005	-2.49112e-005	0	
1.44009e-005	-2.52657e-005	0	
1.63609e-005	-2.56252e-005	0	
1.83859e-005	-2.59914e-005	0	
-1.92238e-005	-2.80636e-005	0	
-1.72013e-005	-2.77137e-005	0	
-1.52365e-005	-2.73689e-005	0	
-1.32997e-005	-2.70279e-005	0	
-1.13438e-005	-2.66714e-005	0	
-9.33888e-006	-2.62903e-005	0	
-7.83843e-006	-2.58495e-005	0	
-5.76584e-006	-2.4699e-005	0	
-5.53199e-006	-2.49234e-005	0	
-4.64878e-006	-2.4823e-005	0	
-3.86916e-006	-2.4762e-005	0	
-3.12658e-006	-2.47209e-005	0	
-2.37487e-006	-2.46795e-005	0	
-1.6427e-006	-2.46409e-005	0	
-8.84612e-007	-2.45934e-005	0	
-9.96596e-008	-2.45356e-005	0	
1.97524e-007	-2.47675e-005	0	
6.71147e-007	-2.50125e-005	0	
4.70027e-007	-2.50691e-005	0	
2.74894e-007	-2.51753e-005	0	
1.43541e-017	-2.51832e-005	0	
-2.74894e-007	-2.51753e-005	0	
-4.70027e-007	-2.50691e-005	0	
-6.71147e-007	-2.50125e-005	0	
-1.97524e-007	-2.47675e-005	0	
9.96596e-008	-2.45356e-005	0	
8.84612e-007	-2.45934e-005	0	
1.6427e-006	-2.46409e-005	0	
2.37487e-006	-2.46795e-005	0	
3.12658e-006	-2.47209e-005	0	
3.86916e-006	-2.4762e-005	0	
4.64878e-006	-2.4823e-005	0	
5.53199e-006	-2.49234e-005	0	
5.76584e-006	-2.4699e-005	0	
7.83843e-006	-2.58495e-005	0	
9.33888e-006	-2.62903e-005	0	
1.13438e-005	-2.66714e-005	0	
1.32997e-005	-2.70279e-005	0	
1.52365e-005	-2.73689e-005	0	
1.72013e-005	-2.77137e-005	0	
1.92238e-005	-2.80636e-005	0	
-2.00247e-005	-3.01126e-005	0	
-1.80166e-005	-2.97745e-005	0	
-1.60529e-005	-2.94422e-005	0	
-1.41303e-005	-2.91206e-005	0	
-1.22389e-005	-2.87843e-005	0	
-1.03158e-005	-2.83869e-005	0	
-9.77743e-006	-2.81716e-005	0	
-6.03404e-006	-2.60959e-005	0	
-5.68293e-006	-2.63154e-005	0	
-5.06951e-006	-2.64667e-005	0	
-4.33642e-006	-2.64394e-005	0	
-3.60515e-006	-2.64027e-005	0	
-2.84792e-006	-2.63744e-005	0	
-2.09691e-006	-2.6354e-005	0	
-1.3531e-006	-2.63494e-005	0	
-5.72234e-007	-2.63495e-005	0	
-7.92038e-008	-2.65172e-005	0	
4.63466e-007	-2.67083e-005	0	
7.48612e-007	-2.69125e-005	0	
2.76119e-007	-2.68734e-005	0	
1.53867e-017	-2.68569e-005	0	
-2.76119e-007	-2.68734e-005	0	
-7.48612e-007	-2.69125e-005	0	
-4.63466e-007	-2.67083e-005	0	
7.92038e-008	-2.65172e-005	0	
5.72234e-007	-2.63495e-005	0	
1.3531e-006	-2.63494e-005	0	
2.09691e-006	-2.6354e-005	0	
2.84792e-006	-2.63744e-005	0	
3.60515e-006	-2.64027e-005	0	
4.33642e-006	-2.64394e-005	0	
5.06951e-006	-2.64667e-005	0	
5.68293e-006	-2.63154e-005	0	
6.03404e-006	-2.60959e-005	0	
9.77743e-006	-2.81716e-005	0	