# vtk DataFile Version 4.1
vtk output
ASCII
DATASET UNSTRUCTURED_GRID

POINTS	2501	float
0	0	0	
0	1	0	
0	2	0	
0	3	0	
0	4	0	
0	5	0	
0	6	0	
0	7	0	
0	8	0	
0	9	0	
0	10	0	
0	11	0	
0	12	0	
0	13	0	
0	14	0	
0	15	0	
0	16	0	
0	17	0	
0	18	0	
0	19	0	
0	20	0	
0	21	0	
0	22	0	
0	23	0	
0	24	0	
0	25	0	
0	26	0	
0	27	0	
0	28	0	
0	29	0	
0	30	0	
0	31	0	
0	32	0	
0	33	0	
0	34	0	
0	35	0	
0	36	0	
0	37	0	
0	38	0	
0	39	0	
0	40	0	
1	0	0	
1	1	0	
1	2	0	
1	3	0	
1	4	0	
1	5	0	
1	6	0	
1	7	0	
1	8	0	
1	9	0	
1	10	0	
1	11	0	
1	12	0	
1	13	0	
1	14	0	
1	15	0	
1	16	0	
1	17	0	
1	18	0	
1	19	0	
1	20	0	
1	21	0	
1	22	0	
1	23	0	
1	24	0	
1	25	0	
1	26	0	
1	27	0	
1	28	0	
1	29	0	
1	30	0	
1	31	0	
1	32	0	
1	33	0	
1	34	0	
1	35	0	
1	36	0	
1	37	0	
1	38	0	
1	39	0	
1	40	0	
2	0	0	
2	1	0	
2	2	0	
2	3	0	
2	4	0	
2	5	0	
2	6	0	
2	7	0	
2	8	0	
2	9	0	
2	10	0	
2	11	0	
2	12	0	
2	13	0	
2	14	0	
2	15	0	
2	16	0	
2	17	0	
2	18	0	
2	19	0	
2	20	0	
2	21	0	
2	22	0	
2	23	0	
2	24	0	
2	25	0	
2	26	0	
2	27	0	
2	28	0	
2	29	0	
2	30	0	
2	31	0	
2	32	0	
2	33	0	
2	34	0	
2	35	0	
2	36	0	
2	37	0	
2	38	0	
2	39	0	
2	40	0	
3	0	0	
3	1	0	
3	2	0	
3	3	0	
3	4	0	
3	5	0	
3	6	0	
3	7	0	
3	8	0	
3	9	0	
3	10	0	
3	11	0	
3	12	0	
3	13	0	
3	14	0	
3	15	0	
3	16	0	
3	17	0	
3	18	0	
3	19	0	
3	20	0	
3	21	0	
3	22	0	
3	23	0	
3	24	0	
3	25	0	
3	26	0	
3	27	0	
3	28	0	
3	29	0	
3	30	0	
3	31	0	
3	32	0	
3	33	0	
3	34	0	
3	35	0	
3	36	0	
3	37	0	
3	38	0	
3	39	0	
3	40	0	
4	0	0	
4	1	0	
4	2	0	
4	3	0	
4	4	0	
4	5	0	
4	6	0	
4	7	0	
4	8	0	
4	9	0	
4	10	0	
4	11	0	
4	12	0	
4	13	0	
4	14	0	
4	15	0	
4	16	0	
4	17	0	
4	18	0	
4	19	0	
4	20	0	
4	21	0	
4	22	0	
4	23	0	
4	24	0	
4	25	0	
4	26	0	
4	27	0	
4	28	0	
4	29	0	
4	30	0	
4	31	0	
4	32	0	
4	33	0	
4	34	0	
4	35	0	
4	36	0	
4	37	0	
4	38	0	
4	39	0	
4	40	0	
5	0	0	
5	1	0	
5	2	0	
5	3	0	
5	4	0	
5	5	0	
5	6	0	
5	7	0	
5	8	0	
5	9	0	
5	10	0	
5	11	0	
5	12	0	
5	13	0	
5	14	0	
5	15	0	
5	16	0	
5	17	0	
5	18	0	
5	19	0	
5	20	0	
5	21	0	
5	22	0	
5	23	0	
5	24	0	
5	25	0	
5	26	0	
5	27	0	
5	28	0	
5	29	0	
5	30	0	
5	31	0	
5	32	0	
5	33	0	
5	34	0	
5	35	0	
5	36	0	
5	37	0	
5	38	0	
5	39	0	
5	40	0	
6	0	0	
6	1	0	
6	2	0	
6	3	0	
6	4	0	
6	5	0	
6	6	0	
6	7	0	
6	8	0	
6	9	0	
6	10	0	
6	11	0	
6	12	0	
6	13	0	
6	14	0	
6	15	0	
6	16	0	
6	17	0	
6	18	0	
6	19	0	
6	20	0	
6	21	0	
6	22	0	
6	23	0	
6	24	0	
6	25	0	
6	26	0	
6	27	0	
6	28	0	
6	29	0	
6	30	0	
6	31	0	
6	32	0	
6	33	0	
6	34	0	
6	35	0	
6	36	0	
6	37	0	
6	38	0	
6	39	0	
6	40	0	
7	0	0	
7	1	0	
7	2	0	
7	3	0	
7	4	0	
7	5	0	
7	6	0	
7	7	0	
7	8	0	
7	9	0	
7	10	0	
7	11	0	
7	12	0	
7	13	0	
7	14	0	
7	15	0	
7	16	0	
7	17	0	
7	18	0	
7	19	0	
7	20	0	
7	21	0	
7	22	0	
7	23	0	
7	24	0	
7	25	0	
7	26	0	
7	27	0	
7	28	0	
7	29	0	
7	30	0	
7	31	0	
7	32	0	
7	33	0	
7	34	0	
7	35	0	
7	36	0	
7	37	0	
7	38	0	
7	39	0	
7	40	0	
8	0	0	
8	1	0	
8	2	0	
8	3	0	
8	4	0	
8	5	0	
8	6	0	
8	7	0	
8	8	0	
8	9	0	
8	10	0	
8	11	0	
8	12	0	
8	13	0	
8	14	0	
8	15	0	
8	16	0	
8	17	0	
8	18	0	
8	19	0	
8	20	0	
8	21	0	
8	22	0	
8	23	0	
8	24	0	
8	25	0	
8	26	0	
8	27	0	
8	28	0	
8	29	0	
8	30	0	
8	31	0	
8	32	0	
8	33	0	
8	34	0	
8	35	0	
8	36	0	
8	37	0	
8	38	0	
8	39	0	
8	40	0	
9	0	0	
9	1	0	
9	2	0	
9	3	0	
9	4	0	
9	5	0	
9	6	0	
9	7	0	
9	8	0	
9	9	0	
9	10	0	
9	11	0	
9	12	0	
9	13	0	
9	14	0	
9	15	0	
9	16	0	
9	17	0	
9	18	0	
9	19	0	
9	20	0	
9	21	0	
9	22	0	
9	23	0	
9	24	0	
9	25	0	
9	26	0	
9	27	0	
9	28	0	
9	29	0	
9	30	0	
9	31	0	
9	32	0	
9	33	0	
9	34	0	
9	35	0	
9	36	0	
9	37	0	
9	38	0	
9	39	0	
9	40	0	
10	0	0	
10	1	0	
10	2	0	
10	3	0	
10	4	0	
10	5	0	
10	6	0	
10	7	0	
10	8	0	
10	9	0	
10	10	0	
10	11	0	
10	12	0	
10	13	0	
10	14	0	
10	15	0	
10	16	0	
10	17	0	
10	18	0	
10	19	0	
10	20	0	
10	21	0	
10	22	0	
10	23	0	
10	24	0	
10	25	0	
10	26	0	
10	27	0	
10	28	0	
10	29	0	
10	30	0	
10	31	0	
10	32	0	
10	33	0	
10	34	0	
10	35	0	
10	36	0	
10	37	0	
10	38	0	
10	39	0	
10	40	0	
11	0	0	
11	1	0	
11	2	0	
11	3	0	
11	4	0	
11	5	0	
11	6	0	
11	7	0	
11	8	0	
11	9	0	
11	10	0	
11	11	0	
11	12	0	
11	13	0	
11	14	0	
11	15	0	
11	16	0	
11	17	0	
11	18	0	
11	19	0	
11	20	0	
11	21	0	
11	22	0	
11	23	0	
11	24	0	
11	25	0	
11	26	0	
11	27	0	
11	28	0	
11	29	0	
11	30	0	
11	31	0	
11	32	0	
11	33	0	
11	34	0	
11	35	0	
11	36	0	
11	37	0	
11	38	0	
11	39	0	
11	40	0	
12	0	0	
12	1	0	
12	2	0	
12	3	0	
12	4	0	
12	5	0	
12	6	0	
12	7	0	
12	8	0	
12	9	0	
12	10	0	
12	11	0	
12	12	0	
12	13	0	
12	14	0	
12	15	0	
12	16	0	
12	17	0	
12	18	0	
12	19	0	
12	20	0	
12	21	0	
12	22	0	
12	23	0	
12	24	0	
12	25	0	
12	26	0	
12	27	0	
12	28	0	
12	29	0	
12	30	0	
12	31	0	
12	32	0	
12	33	0	
12	34	0	
12	35	0	
12	36	0	
12	37	0	
12	38	0	
12	39	0	
12	40	0	
13	0	0	
13	1	0	
13	2	0	
13	3	0	
13	4	0	
13	5	0	
13	6	0	
13	7	0	
13	8	0	
13	9	0	
13	10	0	
13	11	0	
13	12	0	
13	13	0	
13	14	0	
13	15	0	
13	16	0	
13	17	0	
13	18	0	
13	19	0	
13	20	0	
13	21	0	
13	22	0	
13	23	0	
13	24	0	
13	25	0	
13	26	0	
13	27	0	
13	28	0	
13	29	0	
13	30	0	
13	31	0	
13	32	0	
13	33	0	
13	34	0	
13	35	0	
13	36	0	
13	37	0	
13	38	0	
13	39	0	
13	40	0	
14	0	0	
14	1	0	
14	2	0	
14	3	0	
14	4	0	
14	5	0	
14	6	0	
14	7	0	
14	8	0	
14	9	0	
14	10	0	
14	11	0	
14	12	0	
14	13	0	
14	14	0	
14	15	0	
14	16	0	
14	17	0	
14	18	0	
14	19	0	
14	20	0	
14	21	0	
14	22	0	
14	23	0	
14	24	0	
14	25	0	
14	26	0	
14	27	0	
14	28	0	
14	29	0	
14	30	0	
14	31	0	
14	32	0	
14	33	0	
14	34	0	
14	35	0	
14	36	0	
14	37	0	
14	38	0	
14	39	0	
14	40	0	
15	0	0	
15	1	0	
15	2	0	
15	3	0	
15	4	0	
15	5	0	
15	6	0	
15	7	0	
15	8	0	
15	9	0	
15	10	0	
15	11	0	
15	12	0	
15	13	0	
15	14	0	
15	15	0	
15	16	0	
15	17	0	
15	18	0	
15	19	0	
15	20	0	
15	21	0	
15	22	0	
15	23	0	
15	24	0	
15	25	0	
15	26	0	
15	27	0	
15	28	0	
15	29	0	
15	30	0	
15	31	0	
15	32	0	
15	33	0	
15	34	0	
15	35	0	
15	36	0	
15	37	0	
15	38	0	
15	39	0	
15	40	0	
16	0	0	
16	1	0	
16	2	0	
16	3	0	
16	4	0	
16	5	0	
16	6	0	
16	7	0	
16	8	0	
16	9	0	
16	10	0	
16	11	0	
16	12	0	
16	13	0	
16	14	0	
16	15	0	
16	16	0	
16	17	0	
16	18	0	
16	19	0	
16	20	0	
16	21	0	
16	22	0	
16	23	0	
16	24	0	
16	25	0	
16	26	0	
16	27	0	
16	28	0	
16	29	0	
16	30	0	
16	31	0	
16	32	0	
16	33	0	
16	34	0	
16	35	0	
16	36	0	
16	37	0	
16	38	0	
16	39	0	
16	40	0	
17	0	0	
17	1	0	
17	2	0	
17	3	0	
17	4	0	
17	5	0	
17	6	0	
17	7	0	
17	8	0	
17	9	0	
17	10	0	
17	11	0	
17	12	0	
17	13	0	
17	14	0	
17	15	0	
17	16	0	
17	17	0	
17	18	0	
17	19	0	
17	20	0	
17	21	0	
17	22	0	
17	23	0	
17	24	0	
17	25	0	
17	26	0	
17	27	0	
17	28	0	
17	29	0	
17	30	0	
17	31	0	
17	32	0	
17	33	0	
17	34	0	
17	35	0	
17	36	0	
17	37	0	
17	38	0	
17	39	0	
17	40	0	
18	0	0	
18	1	0	
18	2	0	
18	3	0	
18	4	0	
18	5	0	
18	6	0	
18	7	0	
18	8	0	
18	9	0	
18	10	0	
18	11	0	
18	12	0	
18	13	0	
18	14	0	
18	15	0	
18	16	0	
18	17	0	
18	18	0	
18	19	0	
18	20	0	
18	21	0	
18	22	0	
18	23	0	
18	24	0	
18	25	0	
18	26	0	
18	27	0	
18	28	0	
18	29	0	
18	30	0	
18	31	0	
18	32	0	
18	33	0	
18	34	0	
18	35	0	
18	36	0	
18	37	0	
18	38	0	
18	39	0	
18	40	0	
19	0	0	
19	1	0	
19	2	0	
19	3	0	
19	4	0	
19	5	0	
19	6	0	
19	7	0	
19	8	0	
19	9	0	
19	10	0	
19	11	0	
19	12	0	
19	13	0	
19	14	0	
19	15	0	
19	16	0	
19	17	0	
19	18	0	
19	19	0	
19	20	0	
19	21	0	
19	22	0	
19	23	0	
19	24	0	
19	25	0	
19	26	0	
19	27	0	
19	28	0	
19	29	0	
19	30	0	
19	31	0	
19	32	0	
19	33	0	
19	34	0	
19	35	0	
19	36	0	
19	37	0	
19	38	0	
19	39	0	
19	40	0	
20	0	0	
20	1	0	
20	2	0	
20	3	0	
20	4	0	
20	5	0	
20	6	0	
20	7	0	
20	8	0	
20	9	0	
20	10	0	
20	11	0	
20	12	0	
20	13	0	
20	14	0	
20	15	0	
20	16	0	
20	17	0	
20	18	0	
20	19	0	
20	20	0	
20	21	0	
20	22	0	
20	23	0	
20	24	0	
20	25	0	
20	26	0	
20	27	0	
20	28	0	
20	29	0	
20	30	0	
20	31	0	
20	32	0	
20	33	0	
20	34	0	
20	35	0	
20	36	0	
20	37	0	
20	38	0	
20	39	0	
20	40	0	
21	0	0	
21	1	0	
21	2	0	
21	3	0	
21	4	0	
21	5	0	
21	6	0	
21	7	0	
21	8	0	
21	9	0	
21	10	0	
21	11	0	
21	12	0	
21	13	0	
21	14	0	
21	15	0	
21	16	0	
21	17	0	
21	18	0	
21	19	0	
21	20	0	
21	21	0	
21	22	0	
21	23	0	
21	24	0	
21	25	0	
21	26	0	
21	27	0	
21	28	0	
21	29	0	
21	30	0	
21	31	0	
21	32	0	
21	33	0	
21	34	0	
21	35	0	
21	36	0	
21	37	0	
21	38	0	
21	39	0	
21	40	0	
22	0	0	
22	1	0	
22	2	0	
22	3	0	
22	4	0	
22	5	0	
22	6	0	
22	7	0	
22	8	0	
22	9	0	
22	10	0	
22	11	0	
22	12	0	
22	13	0	
22	14	0	
22	15	0	
22	16	0	
22	17	0	
22	18	0	
22	19	0	
22	20	0	
22	21	0	
22	22	0	
22	23	0	
22	24	0	
22	25	0	
22	26	0	
22	27	0	
22	28	0	
22	29	0	
22	30	0	
22	31	0	
22	32	0	
22	33	0	
22	34	0	
22	35	0	
22	36	0	
22	37	0	
22	38	0	
22	39	0	
22	40	0	
23	0	0	
23	1	0	
23	2	0	
23	3	0	
23	4	0	
23	5	0	
23	6	0	
23	7	0	
23	8	0	
23	9	0	
23	10	0	
23	11	0	
23	12	0	
23	13	0	
23	14	0	
23	15	0	
23	16	0	
23	17	0	
23	18	0	
23	19	0	
23	20	0	
23	21	0	
23	22	0	
23	23	0	
23	24	0	
23	25	0	
23	26	0	
23	27	0	
23	28	0	
23	29	0	
23	30	0	
23	31	0	
23	32	0	
23	33	0	
23	34	0	
23	35	0	
23	36	0	
23	37	0	
23	38	0	
23	39	0	
23	40	0	
24	0	0	
24	1	0	
24	2	0	
24	3	0	
24	4	0	
24	5	0	
24	6	0	
24	7	0	
24	8	0	
24	9	0	
24	10	0	
24	11	0	
24	12	0	
24	13	0	
24	14	0	
24	15	0	
24	16	0	
24	17	0	
24	18	0	
24	19	0	
24	20	0	
24	21	0	
24	22	0	
24	23	0	
24	24	0	
24	25	0	
24	26	0	
24	27	0	
24	28	0	
24	29	0	
24	30	0	
24	31	0	
24	32	0	
24	33	0	
24	34	0	
24	35	0	
24	36	0	
24	37	0	
24	38	0	
24	39	0	
24	40	0	
25	0	0	
25	1	0	
25	2	0	
25	3	0	
25	4	0	
25	5	0	
25	6	0	
25	7	0	
25	8	0	
25	9	0	
25	10	0	
25	11	0	
25	12	0	
25	13	0	
25	14	0	
25	15	0	
25	16	0	
25	17	0	
25	18	0	
25	19	0	
25	20	0	
25	21	0	
25	22	0	
25	23	0	
25	24	0	
25	25	0	
25	26	0	
25	27	0	
25	28	0	
25	29	0	
25	30	0	
25	31	0	
25	32	0	
25	33	0	
25	34	0	
25	35	0	
25	36	0	
25	37	0	
25	38	0	
25	39	0	
25	40	0	
26	0	0	
26	1	0	
26	2	0	
26	3	0	
26	4	0	
26	5	0	
26	6	0	
26	7	0	
26	8	0	
26	9	0	
26	10	0	
26	11	0	
26	12	0	
26	13	0	
26	14	0	
26	15	0	
26	16	0	
26	17	0	
26	18	0	
26	19	0	
26	20	0	
26	21	0	
26	22	0	
26	23	0	
26	24	0	
26	25	0	
26	26	0	
26	27	0	
26	28	0	
26	29	0	
26	30	0	
26	31	0	
26	32	0	
26	33	0	
26	34	0	
26	35	0	
26	36	0	
26	37	0	
26	38	0	
26	39	0	
26	40	0	
27	0	0	
27	1	0	
27	2	0	
27	3	0	
27	4	0	
27	5	0	
27	6	0	
27	7	0	
27	8	0	
27	9	0	
27	10	0	
27	11	0	
27	12	0	
27	13	0	
27	14	0	
27	15	0	
27	16	0	
27	17	0	
27	18	0	
27	19	0	
27	20	0	
27	21	0	
27	22	0	
27	23	0	
27	24	0	
27	25	0	
27	26	0	
27	27	0	
27	28	0	
27	29	0	
27	30	0	
27	31	0	
27	32	0	
27	33	0	
27	34	0	
27	35	0	
27	36	0	
27	37	0	
27	38	0	
27	39	0	
27	40	0	
28	0	0	
28	1	0	
28	2	0	
28	3	0	
28	4	0	
28	5	0	
28	6	0	
28	7	0	
28	8	0	
28	9	0	
28	10	0	
28	11	0	
28	12	0	
28	13	0	
28	14	0	
28	15	0	
28	16	0	
28	17	0	
28	18	0	
28	19	0	
28	20	0	
28	21	0	
28	22	0	
28	23	0	
28	24	0	
28	25	0	
28	26	0	
28	27	0	
28	28	0	
28	29	0	
28	30	0	
[...]
POINT_DATA	2501
VECTORS u float
0	0	0	
0	0	0	
0	0	0	
0	0	0	
0	0	0	
0	0	0	
0	0	0	
0	0	0	
0	0	0	
0	0	0	
0	0	0	
0	0	0	
0	0	0	
0	0	0	
0	0	0	
0	0	0	
0	0	0	
0	0	0	
0	0	0	
0	0	0	
0	0	0	
0	0	0	
0	0	0	
0	0	0	
0	0	0	
0	0	0	
0	0	0	
0	0	0	
0	0	0	
0	0	0	
0	0	0	
0	0	0	
0	0	0	
0	0	0	
0	0	0	
0	0	0	
0	0	0	
0	0	0	
0	0	0	
0	0	0	
0	0	0	
-2.63422e-006	-2.48577e-006	0	
-1.50589e-006	-1.64691e-006	0	
-1.16414e-006	-1.3215e-006	0	
-9.39024e-007	-1.15171e-006	0	
-7.75761e-007	-1.02629e-006	0	
-5.85539e-007	-8.79403e-007	0	
-1.47615e-007	-7.23523e-007	0	
-3.54478e-007	-9.17491e-007	0	
-5.26451e-008	-1.13914e-006	0	
-1.65767e-008	-1.27368e-006	0	
-1.07322e-009	-1.401e-006	0	
-2.12941e-008	-1.44155e-006	0	
-1.37907e-008	-1.47288e-006	0	
-8.3727e-009	-1.50145e-006	0	
-5.10111e-009	-1.52471e-006	0	
-2.97189e-009	-1.54301e-006	0	
-1.60101e-009	-1.55678e-006	0	
-6.78223e-010	-1.56694e-006	0	
-1.9128e-010	-1.57394e-006	0	
-1.6205e-011	-1.57806e-006	0	
2.79591e-018	-1.57941e-006	0	
1.6205e-011	-1.57806e-006	0	
1.9128e-010	-1.57394e-006	0	
6.78223e-010	-1.56694e-006	0	
1.60101e-009	-1.55678e-006	0	
2.97189e-009	-1.54301e-006	0	
5.10111e-009	-1.52471e-006	0	
8.3727e-009	-1.50145e-006	0	
1.37907e-008	-1.47288e-006	0	
2.12941e-008	-1.44155e-006	0	
1.07322e-009	-1.401e-006	0	
1.65767e-008	-1.27368e-006	0	
5.26451e-008	-1.13914e-006	0	
3.54478e-007	-9.17491e-007	0	
1.47615e-007	-7.23523e-007	0	
5.85539e-007	-8.79403e-007	0	
7.75761e-007	-1.02629e-006	0	
9.39024e-007	-1.15171e-006	0	
1.16414e-006	-1.3215e-006	0	
1.50589e-006	-1.64691e-006	0	
2.63422e-006	-2.48577e-006	0	
-4.57627e-006	-4.18098e-006	0	
-3.22051e-006	-3.49853e-006	0	
-2.43174e-006	-2.96101e-006	0	
-1.95215e-006	-2.64146e-006	0	
-1.59073e-006	-2.4537e-006	0	
-1.25535e-006	-2.36906e-006	0	
-8.23194e-007	-2.32362e-006	0	
-7.31451e-007	-2.48396e-006	0	
-2.44099e-007	-2.64343e-006	0	
1.07534e-007	-2.86311e-006	0	
-3.3655e-008	-2.85635e-006	0	
-1.6686e-008	-2.90503e-006	0	
-4.84466e-009	-2.97307e-006	0	
8.83897e-010	-3.02669e-006	0	
3.38299e-009	-3.06964e-006	0	
3.96592e-009	-3.10139e-006	0	
4.42071e-009	-3.12559e-006	0	
4.16458e-009	-3.14358e-006	0	
3.20206e-009	-3.156e-006	0	
1.72893e-009	-3.16329e-006	0	
5.84962e-018	-3.16569e-006	0	
-1.72893e-009	-3.16329e-006	0	
-3.20206e-009	-3.156e-006	0	
-4.16458e-009	-3.14358e-006	0	
-4.42071e-009	-3.12559e-006	0	
-3.96592e-009	-3.10139e-006	0	
-3.38299e-009	-3.06964e-006	0	
-8.83897e-010	-3.02669e-006	0	
4.84466e-009	-2.97307e-006	0	
1.6686e-008	-2.90503e-006	0	
3.3655e-008	-2.85635e-006	0	
-1.07534e-007	-2.86311e-006	0	
2.44099e-007	-2.64343e-006	0	
7.31451e-007	-2.48396e-006	0	
8.23194e-007	-2.32362e-006	0	
1.25535e-006	-2.36906e-006	0	
1.59073e-006	-2.4537e-006	0	
1.95215e-006	-2.64146e-006	0	
2.43174e-006	-2.96101e-006	0	
3.22051e-006	-3.49853e-006	0	
4.57627e-006	-4.18098e-006	0	
-6.19177e-006	-5.84935e-006	0	
-4.76045e-006	-5.22094e-006	0	
-3.73191e-006	-4.68964e-006	0	
-2.99299e-006	-4.30315e-006	0	
-2.41799e-006	-4.06288e-006	0	
-1.91042e-006	-3.93432e-006	0	
-1.45025e-006	-3.87183e-006	0	
-9.71546e-007	-3.86248e-006	0	
-3.9209e-007	-4.01103e-006	0	
-1.23465e-007	-4.23847e-006	0	
-2.10425e-008	-4.26516e-006	0	
1.98011e-008	-4.41615e-006	0	
2.50965e-008	-4.51028e-006	0	
2.57243e-008	-4.59041e-006	0	
1.94296e-008	-4.64108e-006	0	
1.78512e-008	-4.68014e-006	0	
1.59984e-008	-4.71092e-006	0	
1.30931e-008	-4.73395e-006	0	
9.23668e-009	-4.74986e-006	0	
4.75875e-009	-4.75915e-006	0	
9.18848e-018	-4.7622e-006	0	
-4.75875e-009	-4.75915e-006	0	
-9.23668e-009	-4.74986e-006	0	
-1.30931e-008	-4.73395e-006	0	
-1.59984e-008	-4.71092e-006	0	
-1.78512e-008	-4.68014e-006	0	
-1.94296e-008	-4.64108e-006	0	
-2.57243e-008	-4.59041e-006	0	
-2.50965e-008	-4.51028e-006	0	
-1.98011e-008	-4.41615e-006	0	
2.10425e-008	-4.26516e-006	0	
1.23465e-007	-4.23847e-006	0	
3.9209e-007	-4.01103e-006	0	
9.71546e-007	-3.86248e-006	0	
1.45025e-006	-3.87183e-006	0	
1.91042e-006	-3.93432e-006	0	
2.41799e-006	-4.06288e-006	0	
2.99299e-006	-4.30315e-006	0	
3.73191e-006	-4.68964e-006	0	
4.76045e-006	-5.22094e-006	0	
6.19177e-006	-5.84935e-006	0	
-7.62995e-006	-7.48762e-006	0	
-6.14569e-006	-6.91931e-006	0	
-4.96144e-006	-6.41579e-006	0	
-4.02335e-006	-6.02315e-006	0	
-3.25667e-006	-5.75085e-006	0	
-2.59884e-006	-5.57887e-006	0	
-2.00807e-006	-5.47885e-006	0	
-1.36524e-006	-5.40905e-006	0	
-5.22978e-007	-5.31146e-006	0	
-3.70865e-007	-5.55192e-006	0	
1.40244e-007	-5.80802e-006	0	
7.40935e-008	-5.97279e-006	0	
8.46831e-008	-6.13883e-006	0	
4.33113e-008	-6.19451e-006	0	
3.84236e-008	-6.24022e-006	0	
3.55791e-008	-6.28209e-006	0	
3.08906e-008	-6.31554e-006	0	
2.43975e-008	-6.34067e-006	0	
1.67152e-008	-6.35775e-006	0	
8.49809e-009	-6.36771e-006	0	
1.27372e-017	-6.37099e-006	0	
-8.49809e-009	-6.36771e-006	0	
-1.67152e-008	-6.35775e-006	0	
-2.43975e-008	-6.34067e-006	0	
-3.08906e-008	-6.31554e-006	0	
-3.55791e-008	-6.28209e-006	0	
-3.84236e-008	-6.24022e-006	0	
-4.33113e-008	-6.19451e-006	0	
-8.46831e-008	-6.13883e-006	0	
-7.40935e-008	-5.97279e-006	0	
-1.40244e-007	-5.80802e-006	0	
3.70865e-007	-5.55192e-006	0	
5.22978e-007	-5.31146e-006	0	
1.36524e-006	-5.40905e-006	0	
2.00807e-006	-5.47885e-006	0	
2.59884e-006	-5.57887e-006	0	
3.25667e-006	-5.75085e-006	0	
4.02335e-006	-6.02315e-006	0	
4.96144e-006	-6.41579e-006	0	
6.14569e-006	-6.91931e-006	0	
7.62995e-006	-7.48762e-006	0	
-8.93819e-006	-9.12966e-006	0	
-7.40861e-006	-8.60651e-006	0	
-6.10772e-006	-8.1372e-006	0	
-5.01198e-006	-7.75807e-006	0	
-4.08341e-006	-7.48389e-006	0	
-3.28146e-006	-7.31032e-006	0	
-2.55868e-006	-7.22708e-006	0	
-1.85248e-006	-7.21803e-006	0	
-1.07935e-006	-7.22772e-006	0	
-7.35489e-007	-7.43446e-006	0	
-8.91322e-008	-7.61419e-006	0	
2.56092e-007	-7.8799e-006	0	
5.12919e-008	-7.81038e-006	0	
5.38959e-008	-7.81834e-006	0	
5.83335e-008	-7.86667e-006	0	
5.49892e-008	-7.90789e-006	0	
4.68884e-008	-7.94138e-006	0	
3.57958e-008	-7.96448e-006	0	
2.43407e-008	-7.98022e-006	0	
1.23412e-008	-7.98953e-006	0	
1.65762e-017	-7.99262e-006	0	
-1.23412e-008	-7.98953e-006	0	
-2.43407e-008	-7.98022e-006	0	
-3.57958e-008	-7.96448e-006	0	
-4.68884e-008	-7.94138e-006	0	
-5.49892e-008	-7.90789e-006	0	
-5.83335e-008	-7.86667e-006	0	
-5.38959e-008	-7.81834e-006	0	
-5.12919e-008	-7.81038e-006	0	
-2.56092e-007	-7.8799e-006	0	
8.91322e-008	-7.61419e-006	0	
7.35489e-007	-7.43446e-006	0	
1.07935e-006	-7.22772e-006	0	
1.85248e-006	-7.21803e-006	0	
2.55868e-006	-7.22708e-006	0	
3.28146e-006	-7.31032e-006	0	
4.08341e-006	-7.48389e-006	0	
5.01198e-006	-7.75807e-006	0	
6.10772e-006	-8.1372e-006	0	
7.40861e-006	-8.60651e-006	0	
8.93819e-006	-9.12966e-006	0	
-1.01507e-005	-1.07801e-005	0	
-8.57721e-006	-1.02915e-005	0	
-7.17642e-006	-9.85222e-006	0	
-5.94578e-006	-9.49432e-006	0	
-4.87198e-006	-9.23421e-006	0	
-3.93308e-006	-9.07259e-006	0	
-3.09596e-006	-8.99656e-006	0	
-2.3185e-006	-8.98158e-006	0	
-1.60846e-006	-8.98687e-006	0	
-9.52647e-007	-9.01299e-006	0	
-2.60353e-007	-9.17046e-006	0	
-2.22335e-008	-9.42971e-006	0	
2.6367e-008	-9.37044e-006	0	
7.40151e-008	-9.46942e-006	0	
8.02476e-008	-9.51785e-006	0	
7.56718e-008	-9.56393e-006	0	
5.87803e-008	-9.58711e-006	0	
4.51365e-008	-9.60364e-006	0	
3.09667e-008	-9.61602e-006	0	
1.58079e-008	-9.62369e-006	0	
2.05327e-017	-9.62631e-006	0	
-1.58079e-008	-9.62369e-006	0	
-3.09667e-008	-9.61602e-006	0	
-4.51365e-008	-9.60364e-006	0	
-5.87803e-008	-9.58711e-006	0	
-7.56718e-008	-9.56393e-006	0	
-8.02476e-008	-9.51785e-006	0	
-7.40151e-008	-9.46942e-006	0	
-2.6367e-008	-9.37044e-006	0	
2.22335e-008	-9.42971e-006	0	
2.60353e-007	-9.17046e-006	0	
9.52647e-007	-9.01299e-006	0	
1.60846e-006	-8.98687e-006	0	
2.3185e-006	-8.98158e-006	0	
3.09596e-006	-8.99656e-006	0	
3.93308e-006	-9.07259e-006	0	
4.87198e-006	-9.23421e-006	0	
5.94578e-006	-9.49432e-006	0	
7.17642e-006	-9.85222e-006	0	
8.57721e-006	-1.02915e-005	0	
1.01507e-005	-1.07801e-005	0	
-1.12958e-005	-1.24449e-005	0	
-9.67478e-006	-1.19802e-005	0	
-8.17916e-006	-1.15635e-005	0	
-6.82231e-006	-1.12245e-005	0	
-5.61117e-006	-1.09809e-005	0	
-4.54712e-006	-1.08328e-005	0	
-3.6175e-006	-1.07596e-005	0	
-2.79678e-006	-1.07258e-005	0	
-2.06162e-006	-1.07025e-005	0	
-1.31292e-006	-1.06635e-005	0	
-4.06269e-007	-1.05696e-005	0	
-3.01841e-007	-1.08228e-005	0	
1.24258e-007	-1.11004e-005	0	
8.89144e-008	-1.11456e-005	0	
1.1947e-007	-1.12419e-005	0	
7.63726e-008	-1.1243e-005	0	
6.35095e-008	-1.12451e-005	0	
5.12118e-008	-1.1254e-005	0	
3.61265e-008	-1.12623e-005	0	
1.86989e-008	-1.12681e-005	0	
2.47689e-017	-1.12701e-005	0	
-1.86989e-008	-1.12681e-005	0	
-3.61265e-008	-1.12623e-005	0	
-5.12118e-008	-1.1254e-005	0	
-6.35095e-008	-1.12451e-005	0	
-7.63726e-008	-1.1243e-005	0	
-1.1947e-007	-1.12419e-005	0	
-8.89144e-008	-1.11456e-005	0	
-1.24258e-007	-1.11004e-005	0	
3.01841e-007	-1.08228e-005	0	
4.06269e-007	-1.05696e-005	0	
1.31292e-006	-1.06635e-005	0	
2.06162e-006	-1.07025e-005	0	
2.79678e-006	-1.07258e-005	0	
3.6175e-006	-1.07596e-005	0	
4.54712e-006	-1.08328e-005	0	
5.61117e-006	-1.09809e-005	0	
6.82231e-006	-1.12245e-005	0	
8.17916e-006	-1.15635e-005	0	
9.67478e-006	-1.19802e-005	0	
1.12958e-005	-1.24449e-005	0	
-1.23987e-005	-1.4135e-005	0	
-1.07218e-005	-1.36844e-005	0	
-9.13132e-006	-1.32796e-005	0	
-7.64826e-006	-1.29484e-005	0	
-6.29712e-006	-1.27149e-005	0	
-5.11141e-006	-1.25822e-005	0	
-4.10816e-006	-1.25223e-005	0	
-3.25748e-006	-1.24965e-005	0	
-2.49738e-006	-1.24899e-005	0	
-1.75958e-006	-1.25075e-005	0	
-9.80264e-007	-1.25195e-005	0	
-6.94304e-007	-1.27253e-005	0	
-1.23059e-007	-1.29069e-005	0	
2.14967e-007	-1.31549e-005	0	
5.39341e-008	-1.29755e-005	0	
5.96253e-008	-1.29088e-005	0	
6.31284e-008	-1.29055e-005	0	
5.53046e-008	-1.29097e-005	0	
4.04386e-008	-1.29164e-005	0	
2.07854e-008	-1.292e-005	0	
2.90152e-017	-1.29211e-005	0	
-2.07854e-008	-1.292e-005	0	
-4.04386e-008	-1.29164e-005	0	
-5.53046e-008	-1.29097e-005	0	
-6.31284e-008	-1.29055e-005	0	
-5.96253e-008	-1.29088e-005	0	
-5.39341e-008	-1.29755e-005	0	
-2.14967e-007	-1.31549e-005	0	
1.23059e-007	-1.29069e-005	0	
6.94304e-007	-1.27253e-005	0	
9.80264e-007	-1.25195e-005	0	
1.75958e-006	-1.25075e-005	0	
2.49738e-006	-1.24899e-005	0	
3.25748e-006	-1.24965e-005	0	
4.10816e-006	-1.25223e-005	0	
5.11141e-006	-1.25822e-005	0	
6.29712e-006	-1.27149e-005	0	
7.64826e-006	-1.29484e-005	0	
9.13132e-006	-1.32796e-005	0	
1.07218e-005	-1.36844e-005	0	
1.23987e-005	-1.4135e-005	0	
-1.34784e-005	-1.58685e-005	0	
-1.17355e-005	-1.54249e-005	0	
-1.00521e-005	-1.50206e-005	0	
-8.44119e-006	-1.46772e-005	0	
-6.93072e-006	-1.44329e-005	0	
-5.60437e-006	-1.43135e-005	0	
-4.54426e-006	-1.42763e-005	0	
-3.68872e-006	-1.4258e-005	0	
-2.92613e-006	-1.42424e-005	0	
-2.19133e-006	-1.42357e-005	0	
-1.51621e-006	-1.4226e-005	0	
-9.15919e-007	-1.42359e-005	0	
-2.94456e-007	-1.43848e-005	0	
-4.19741e-008	-1.46181e-005	0	
-5.8193e-009	-1.45127e-005	0	
5.42485e-008	-1.45548e-005	0	
6.53668e-008	-1.45589e-005	0	
6.2355e-008	-1.45732e-005	0	
4.25895e-008	-1.45748e-005	0	
2.21827e-008	-1.45755e-005	0	
3.36345e-017	-1.4576e-005	0	
-2.21827e-008	-1.45755e-005	0	
-4.25895e-008	-1.45748e-005	0	
-6.2355e-008	-1.45732e-005	0	
-6.53668e-008	-1.45589e-005	0	
-5.42485e-008	-1.45548e-005	0	
5.8193e-009	-1.45127e-005	0	
4.19741e-008	-1.46181e-005	0	
2.94456e-007	-1.43848e-005	0	
9.15919e-007	-1.42359e-005	0	
1.51621e-006	-1.4226e-005	0	
2.19133e-006	-1.42357e-005	0	
2.92613e-006	-1.42424e-005	0	
3.68872e-006	-1.4258e-005	0	
4.54426e-006	-1.42763e-005	0	
5.60437e-006	-1.43135e-005	0	
6.93072e-006	-1.44329e-005	0	
8.44119e-006	-1.46772e-005	0	
1.00521e-005	-1.50206e-005	0	
1.17355e-005	-1.54249e-005	0	
1.34784e-005	-1.58685e-005	0	
-1.45439e-005	-1.76672e-005	0	
-1.27275e-005	-1.72284e-005	0	
-1.09594e-005	-1.68195e-005	0	
-9.23228e-006	-1.64483e-005	0	
-7.53644e-006	-1.61497e-005	0	
-5.99227e-006	-1.60049e-005	0	
-4.90712e-006	-1.59886e-005	0	
-4.10371e-006	-1.59719e-005	0	
-3.36512e-006	-1.59351e-005	0	
-2.64942e-006	-1.58935e-005	0	
-1.97479e-006	-1.58466e-005	0	
-1.27722e-006	-1.57866e-005	0	
-4.31523e-007	-1.56878e-005	0	
-2.92584e-007	-1.59127e-005	0	
8.07159e-008	-1.61804e-005	0	
5.29725e-008	-1.61855e-005	0	
9.35809e-008	-1.62519e-005	0	
5.87507e-008	-1.62391e-005	0	
4.34738e-008	-1.62316e-005	0	
2.33179e-008	-1.62312e-005	0	
3.81041e-017	-1.62311e-005	0	
-2.33179e-008	-1.62312e-005	0	
-4.34738e-008	-1.62316e-005	0	
-5.87507e-008	-1.62391e-005	0	
-9.35809e-008	-1.62519e-005	0	
-5.29725e-008	-1.61855e-005	0	
-8.07159e-008	-1.61804e-005	0	
2.92584e-007	-1.59127e-005	0	
4.31523e-007	-1.56878e-005	0	
1.27722e-006	-1.57866e-005	0	
1.97479e-006	-1.58466e-005	0	
2.64942e-006	-1.58935e-005	0	
3.36512e-006	-1.59351e-005	0	
4.10371e-006	-1.59719e-005	0	
4.90712e-006	-1.59886e-005	0	
5.99227e-006	-1.60049e-005	0	
7.53644e-006	-1.61497e-005	0	
9.23228e-006	-1.64483e-005	0	
1.09594e-005	-1.68195e-005	0	
1.27275e-005	-1.72284e-005	0	
1.45439e-005	-1.76672e-005	0	
-1.55922e-005	-1.95471e-005	0	
-1.37012e-005	-1.91162e-005	0	
-1.186e-005	-1.87087e-005	0	
-1.00424e-005	-1.83235e-005	0	
-8.18212e-006	-1.79702e-005	0	
-6.31875e-006	-1.76856e-005	0	
-5.20198e-006	-1.76139e-005	0	
-4.51452e-006	-1.76073e-005	0	
-3.80725e-006	-1.7579e-005	0	
-3.10462e-006	-1.75468e-005	0	
-2.41899e-006	-1.75197e-005	0	
-1.72572e-006	-1.75125e-005	0	
-9.68961e-007	-1.75013e-005	0	
-6.4045e-007	-1.76799e-005	0	
-1.64114e-007	-1.78686e-005	0	
1.77667e-007	-1.80908e-005	0	
4.20103e-008	-1.79339e-005	0	
5.33427e-008	-1.78822e-005	0	
4.65337e-008	-1.78823e-005	0	
2.5691e-008	-1.7883e-005	0	
4.30248e-017	-1.78849e-005	0	
-2.5691e-008	-1.7883e-005	0	
-4.65337e-008	-1.78823e-005	0	
-5.33427e-008	-1.78822e-005	0	
-4.20103e-008	-1.79339e-005	0	
-1.77667e-007	-1.80908e-005	0	
1.64114e-007	-1.78686e-005	0	
6.4045e-007	-1.76799e-005	0	
9.68961e-007	-1.75013e-005	0	
1.72572e-006	-1.75125e-005	0	
2.41899e-006	-1.75197e-005	0	
3.10462e-006	-1.75468e-005	0	
3.80725e-006	-1.7579e-005	0	
4.51452e-006	-1.76073e-005	0	
5.20198e-006	-1.76139e-005	0	
6.31875e-006	-1.76856e-005	0	
8.18212e-006	-1.79702e-005	0	
1.00424e-005	-1.83235e-005	0	
1.186e-005	-1.87087e-005	0	
1.37012e-005	-1.91162e-005	0	
1.55922e-005	-1.95471e-005	0	
-1.66127e-005	-2.15104e-005	0	
-1.4654e-005	-2.10924e-005	0	
-1.27513e-005	-2.06951e-005	0	
-1.08615e-005	-2.03187e-005	0	
-8.92052e-006	-1.99646e-005	0	
-6.91149e-006	-1.96257e-005	0	
-5.51679e-006	-1.92268e-005	0	
-4.95335e-006	-1.92297e-005	0	
-4.23345e-006	-1.92065e-005	0	
-3.54537e-006	-1.91857e-005	0	
-2.85468e-006	-1.91663e-005	0	
-2.15837e-006	-1.91547e-005	0	
-1.48794e-006	-1.91296e-005	0	
-8.3868e-007	-1.91045e-005	0	
-3.5002e-007	-1.9279e-005	0	
-4.99514e-008	-1.95008e-005	0	
2.65983e-008	-1.94431e-005	0	
7.18469e-008	-1.95112e-005	0	
5.56432e-008	-1.95209e-005	0	
3.28226e-008	-1.95346e-005	0	
4.75412e-017	-1.95351e-005	0	
-3.28226e-008	-1.95346e-005	0	
-5.56432e-008	-1.95209e-005	0	
-7.18469e-008	-1.95112e-005	0	
-2.65983e-008	-1.94431e-005	0	
4.99514e-008	-1.95008e-005	0	
3.5002e-007	-1.9279e-005	0	
8.3868e-007	-1.91045e-005	0	
1.48794e-006	-1.91296e-005	0	
2.15837e-006	-1.91547e-005	0	
2.85468e-006	-1.91663e-005	0	
3.54537e-006	-1.91857e-005	0	
4.23345e-006	-1.92065e-005	0	
4.95335e-006	-1.92297e-005	0	
5.51679e-006	-1.92268e-005	0	
6.91149e-006	-1.96257e-005	0	
8.92052e-006	-1.99646e-005	0	
1.08615e-005	-2.03187e-005	0	
1.27513e-005	-2.06951e-005	0	
1.4654e-005	-2.10924e-005	0	
1.66127e-005	-2.15104e-005	0	
-1.75941e-005	-2.3544e-005	0	
-1.5582e-005	-2.31419e-005	0	
-1.36302e-005	-2.27567e-005	0	
-1.16883e-005	-2.23886e-005	0	
-9.70343e-006	-2.2037e-005	0	
-7.66689e-006	-2.16942e-005	0	
-5.76574e-006	-2.07289e-005	0	
-5.37413e-006	-2.08658e-005	0	
-4.66357e-006	-2.08261e-005	0	
-3.98022e-006	-2.07998e-005	0	
-3.29037e-006	-2.07852e-005	0	
-2.60666e-006	-2.07627e-005	0	
-1.94147e-006	-2.07342e-005	0	
-1.24449e-006	-2.06915e-005	0	
-5.19658e-007	-2.06354e-005	0	
-2.85047e-007	-2.08683e-005	0	
1.72016e-007	-2.11088e-005	0	
9.23569e-008	-2.11177e-005	0	
9.04242e-008	-2.1189e-005	0	
3.09593e-008	-2.11817e-005	0	
5.2923e-017	-2.11777e-005	0	
-3.09593e-008	-2.11817e-005	0	
-9.04242e-008	-2.1189e-005	0	
-9.23569e-008	-2.11177e-005	0	
-1.72016e-007	-2.11088e-005	0	
2.85047e-007	-2.08683e-005	0	
5.19658e-007	-2.06354e-005	0	
1.24449e-006	-2.06915e-005	0	
1.94147e-006	-2.07342e-005	0	
2.60666e-006	-2.07627e-005	0	
3.29037e-006	-2.07852e-005	0	
3.98022e-006	-2.07998e-005	0	
4.66357e-006	-2.08261e-005	0	
5.37413e-006	-2.08658e-005	0	
5.76574e-006	-2.07289e-005	0	
7.66689e-006	-2.16942e-005	0	
9.70343e-006	-2.2037e-005	0	
1.16883e-005	-2.23886e-005	0	
1.36302e-005	-2.27567e-005	0	
1.5582e-005	-2.31419e-005	0	
1.75941e-005	-2.3544e-005	0	
-1.85295e-005	-2.56253e-005	0	
-1.64838e-005	-2.52396e-005	0	
-1.44997e-005	-2.4864e-005	0	
-1.25266e-005	-2.4498e-005	0	
-1.05169e-005	-2.41399e-005	0	
-8.46607e-006	-2.37865e-005	0	
-6.37132e-006	-2.28102e-005	0	
-5.55318e-006	-2.22568e-005	0	
-5.12507e-006	-2.24148e-005	0	
-4.4039e-006	-2.24081e-005	0	
-3.72696e-006	-2.24002e-005	0	
-3.05196e-006	-2.23814e-005	0	
-2.37617e-006	-2.23648e-005	0	
-1.6987e-006	-2.23626e-005	0	
-9.81387e-007	-2.23637e-005	0	
-5.52681e-007	-2.25311e-005	0	
-5.6452e-008	-2.27156e-005	0	
2.55802e-007	-2.29441e-005	0	
4.89673e-008	-2.28351e-005	0	
3.39204e-008	-2.28088e-005	0	
5.76296e-017	-2.28188e-005	0	
-3.39204e-008	-2.28088e-005	0	
-4.89673e-008	-2.28351e-005	0	
-2.55802e-007	-2.29441e-005	0	
5.6452e-008	-2.27156e-005	0	
5.52681e-007	-2.25311e-005	0	
9.81387e-007	-2.23637e-005	0	
1.6987e-006	-2.23626e-005	0	
2.37617e-006	-2.23648e-005	0	
3.05196e-006	-2.23814e-005	0	
3.72696e-006	-2.24002e-005	0	
4.4039e-006	-2.24081e-005	0	
5.12507e-006	-2.24148e-005	0	
5.55318e-006	-2.22568e-005	0	
6.37132e-006	-2.28102e-005	0	
8.46607e-006	-2.37865e-005	0	
1.05169e-005	-2.41399e-005	0	
1.25266e-005	-2.4498e-005	0	
1.44997e-005	-2.4864e-005	0	
1.64838e-005	-2.52396e-005	0	
1.85295e-005	-2.56253e-005	0	
-1.94173e-005	-2.77295e-005	0	
-1.73594e-005	-2.73599e-005	0	
-1.53624e-005	-2.69924e-005	0	
-1.33781e-005	-2.66267e-005	0	
-1.13608e-005	-2.62603e-005	0	
-9.30478e-006	-2.58924e-005	0	
-7.34272e-006	-2.55659e-005	0	
-5.8198e-006	-2.39012e-005	0	
-5.58751e-006	-2.41312e-005	0	
-4.85953e-006	-2.4071e-005	0	
-4.16388e-006	-2.40251e-005	0	
-3.49738e-006	-2.39953e-005	0	
-2.80905e-006	-2.39768e-005	0	
-2.11569e-006	-2.39729e-005	0	
-1.43585e-006	-2.39623e-005	0	
-7.30875e-007	-2.39434e-005	0	
-2.42603e-007	-2.4129e-005	0	
1.91167e-008	-2.43716e-005	0	
5.40393e-008	-2.43445e-005	0	
7.10373e-008	-2.44521e-005	0	
6.32399e-017	-2.44681e-005	0	
-7.10373e-008	-2.44521e-005	0	
-5.40393e-008	-2.43445e-005	0	
-1.91167e-008	-2.43716e-005	0	
2.42603e-007	-2.4129e-005	0	
7.30875e-007	-2.39434e-005	0	
1.43585e-006	-2.39623e-005	0	
2.11569e-006	-2.39729e-005	0	
2.80905e-006	-2.39768e-005	0	
3.49738e-006	-2.39953e-005	0	
4.16388e-006	-2.40251e-005	0	
4.85953e-006	-2.4071e-005	0	
5.58751e-006	-2.41312e-005	0	
5.8198e-006	-2.39012e-005	0	
7.34272e-006	-2.55659e-005	0	
9.30478e-006	-2.58924e-005	0	
1.13608e-005	-2.62603e-005	0	
1.33781e-005	-2.66267e-005	0	
1.53624e-005	-2.69924e-005	0	
1.73594e-005	-2.73599e-005	0	
1.94173e-005	-2.77295e-005	0	
-2.02587e-005	-2.98326e-005	0	
-1.82094e-005	-2.94785e-005	0	
-1.62174e-005	-2.91206e-005	0	
-1.42412e-005	-2.87577e-005	0	
-1.22353e-005	-2.8385e-005	0	
-1.01893e-005	-2.8001e-005	0	
-8.35427e-006	-2.75908e-005	0	
-6.05292e-006	-2.52545e-005	0	
-5.75355e-006	-2.54742e-005	0	
-5.26584e-006	-2.56458e-005	0	
-4.6204e-006	-2.56172e-005	0	
-3.94789e-006	-2.55884e-005	0	
-3.23821e-006	-2.55814e-005	0	
-2.53544e-006	-2.55803e-005	0	
-1.84934e-006	-2.55859e-005	0	
-1.13067e-006	-2.55779e-005	0	
-4.30373e-007	-2.55539e-005	0	
-2.38794e-007	-2.58185e-005	0	
1.90074e-007	-2.60707e-005	0	
1.53565e-007	-2.61032e-005	0	
6.61895e-017	-2.62161e-005	0	
-1.53565e-007	-2.61032e-005	0	
-1.90074e-007	-2.60707e-005	0	
2.38794e-007	-2.58185e-005	0	
4.30373e-007	-2.55539e-005	0	
1.13067e-006	-2.55779e-005	0	
1.84934e-006	-2.55859e-005	0	
2.53544e-006	-2.55803e-005	0	
3.23821e-006	-2.55814e-005	0	
3.94789e-006	-2.55884e-005	0	
4.6204e-006	-2.56172e-005	0	
5.26584e-006	-2.56458e-005	0	
5.75355e-006	-2.54742e-005	0	