# vtk DataFile Version 4.1
vtk output
ASCII
DATASET UNSTRUCTURED_GRID

POINTS	7401	float
0	0	0	
0	1	0	
0	2	0	
0	3	0	
0	4	0	
0	5	0	
0	6	0	
0	7	0	
0	8	0	
0	9	0	
0	10	0	
0	11	0	
0	12	0	
0	13	0	
0	14	0	
0	15	0	
0	16	0	
0	17	0	
0	18	0	
0	19	0	
0	20	0	
0	21	0	
0	22	0	
0	23	0	
0	24	0	
0	25	0	
0	26	0	
0	27	0	
0	28	0	
0	29	0	
0	30	0	
0	31	0	
0	32	0	
0	33	0	
0	34	0	
0	35	0	
0	36	0	
0	37	0	
0	38	0	
0	39	0	
0	40	0	
1	0	0	
1	1	0	
1	2	0	
1	3	0	
1	4	0	
1	5	0	
1	6	0	
1	7	0	
1	8	0	
1	9	0	
1	10	0	
1	11	0	
1	12	0	
1	13	0	
1	14	0	
1	15	0	
1	16	0	
1	17	0	
1	18	0	
1	19	0	
1	20	0	
1	21	0	
1	22	0	
1	23	0	
1	24	0	
1	25	0	
1	26	0	
1	27	0	
1	28	0	
1	29	0	
1	30	0	
1	31	0	
1	32	0	
1	33	0	
1	34	0	
1	35	0	
1	36	0	
1	37	0	
1	38	0	
1	39	0	
1	40	0	
2	0	0	
2	1	0	
2	2	0	
2	3	0	
2	4	0	
2	5	0	
2	6	0	
2	7	0	
2	8	0	
2	9	0	
2	10	0	
2	11	0	
2	12	0	
2	13	0	
2	14	0	
2	15	0	
2	16	0	
2	17	0	
2	18	0	
2	19	0	
2	20	0	
2	21	0	
2	22	0	
2	23	0	
2	24	0	
2	25	0	
2	26	0	
2	27	0	
2	28	0	
2	29	0	
2	30	0	
2	31	0	
2	32	0	
2	33	0	
2	34	0	
2	35	0	
2	36	0	
2	37	0	
2	38	0	
2	39	0	
2	40	0	
3	0	0	
3	1	0	
3	2	0	
3	3	0	
3	4	0	
3	5	0	
3	6	0	
3	7	0	
3	8	0	
3	9	0	
3	10	0	
3	11	0	
3	12	0	
3	13	0	
3	14	0	
3	15	0	
3	16	0	
3	17	0	
3	18	0	
3	19	0	
3	20	0	
3	21	0	
3	22	0	
3	23	0	
3	24	0	
3	25	0	
3	26	0	
3	27	0	
3	28	0	
3	29	0	
3	30	0	
3	31	0	
3	32	0	
3	33	0	
3	34	0	
3	35	0	
3	36	0	
3	37	0	
3	38	0	
3	39	0	
3	40	0	
4	0	0	
4	1	0	
4	2	0	
4	3	0	
4	4	0	
4	5	0	
4	6	0	
4	7	0	
4	8	0	
4	9	0	
4	10	0	
4	11	0	
4	12	0	
4	13	0	
4	14	0	
4	15	0	
4	16	0	
4	17	0	
4	18	0	
4	19	0	
4	20	0	
4	21	0	
4	22	0	
4	23	0	
4	24	0	
4	25	0	
4	26	0	
4	27	0	
4	28	0	
4	29	0	
4	30	0	
4	31	0	
4	32	0	
4	33	0	
4	34	0	
4	35	0	
4	36	0	
4	37	0	
4	38	0	
4	39	0	
4	40	0	
5	0	0	
5	1	0	
5	2	0	
5	3	0	
5	4	0	
5	5	0	
5	6	0	
5	7	0	
5	8	0	
5	9	0	
5	10	0	
5	11	0	
5	12	0	
5	13	0	
5	14	0	
5	15	0	
5	16	0	
5	17	0	
5	18	0	
5	19	0	
5	20	0	
5	21	0	
5	22	0	
5	23	0	
5	24	0	
5	25	0	
5	26	0	
5	27	0	
5	28	0	
5	29	0	
5	30	0	
5	31	0	
5	32	0	
5	33	0	
5	34	0	
5	35	0	
5	36	0	
5	37	0	
5	38	0	
5	39	0	
5	40	0	
6	0	0	
6	1	0	
6	2	0	
6	3	0	
6	4	0	
6	5	0	
6	6	0	
6	7	0	
6	8	0	
6	9	0	
6	10	0	
6	11	0	
6	12	0	
6	13	0	
6	14	0	
6	15	0	
6	16	0	
6	17	0	
6	18	0	
6	19	0	
6	20	0	
6	21	0	
6	22	0	
6	23	0	
6	24	0	
6	25	0	
6	26	0	
6	27	0	
6	28	0	
6	29	0	
6	30	0	
6	31	0	
6	32	0	
6	33	0	
6	34	0	
6	35	0	
6	36	0	
6	37	0	
6	38	0	
6	39	0	
6	40	0	
7	0	0	
7	1	0	
7	2	0	
7	3	0	
7	4	0	
7	5	0	
7	6	0	
7	7	0	
7	8	0	
7	9	0	
7	10	0	
7	11	0	
7	12	0	
7	13	0	
7	14	0	
7	15	0	
7	16	0	
7	17	0	
7	18	0	
7	19	0	
7	20	0	
7	21	0	
7	22	0	
7	23	0	
7	24	0	
7	25	0	
7	26	0	
7	27	0	
7	28	0	
7	29	0	
7	30	0	
7	31	0	
7	32	0	
7	33	0	
7	34	0	
7	35	0	
7	36	0	
7	37	0	
7	38	0	
7	39	0	
7	40	0	
8	0	0	
8	1	0	
8	2	0	
8	3	0	
8	4	0	
8	5	0	
8	6	0	
8	7	0	
8	8	0	
8	9	0	
8	10	0	
8	11	0	
8	12	0	
8	13	0	
8	14	0	
8	15	0	
8	16	0	
8	17	0	
8	18	0	
8	19	0	
8	20	0	
8	21	0	
8	22	0	
8	23	0	
8	24	0	
8	25	0	
8	26	0	
8	27	0	
8	28	0	
8	29	0	
8	30	0	
8	31	0	
8	32	0	
8	33	0	
8	34	0	
8	35	0	
8	36	0	
8	37	0	
8	38	0	
8	39	0	
8	40	0	
9	0	0	
9	1	0	
9	2	0	
9	3	0	
9	4	0	
9	5	0	
9	6	0	
9	7	0	
9	8	0	
9	9	0	
9	10	0	
9	11	0	
9	12	0	
9	13	0	
9	14	0	
9	15	0	
9	16	0	
9	17	0	
9	18	0	
9	19	0	
9	20	0	
9	21	0	
9	22	0	
9	23	0	
9	24	0	
9	25	0	
9	26	0	
9	27	0	
9	28	0	
9	29	0	
9	30	0	
9	31	0	
9	32	0	
9	33	0	
9	34	0	
9	35	0	
9	36	0	
9	37	0	
9	38	0	
9	39	0	
9	40	0	
10	0	0	
10	1	0	
10	2	0	
10	3	0	
10	4	0	
10	5	0	
10	6	0	
10	7	0	
10	8	0	
10	9	0	
10	10	0	
10	11	0	
10	12	0	
10	13	0	
10	14	0	
10	15	0	
10	16	0	
10	17	0	
10	18	0	
10	19	0	
10	20	0	
10	21	0	
10	22	0	
10	23	0	
10	24	0	
10	25	0	
10	26	0	
10	27	0	
10	28	0	
10	29	0	
10	30	0	
10	31	0	
10	32	0	
10	33	0	
10	34	0	
10	35	0	
10	36	0	
10	37	0	
10	38	0	
10	39	0	
10	40	0	
11	0	0	
11	1	0	
11	2	0	
11	3	0	
11	4	0	
11	5	0	
11	6	0	
11	7	0	
11	8	0	
11	9	0	
11	10	0	
11	11	0	
11	12	0	
11	13	0	
11	14	0	
11	15	0	
11	16	0	
11	17	0	
11	18	0	
11	19	0	
11	20	0	
11	21	0	
11	22	0	
11	23	0	
11	24	0	
11	25	0	
11	26	0	
11	27	0	
11	28	0	
11	29	0	
11	30	0	
11	31	0	
11	32	0	
11	33	0	
11	34	0	
11	35	0	
11	36	0	
11	37	0	
11	38	0	
11	39	0	
11	40	0	
12	0	0	
12	1	0	
12	2	0	
12	3	0	
12	4	0	
12	5	0	
12	6	0	
12	7	0	
12	8	0	
12	9	0	
12	10	0	
12	11	0	
12	12	0	
12	13	0	
12	14	0	
12	15	0	
12	16	0	
12	17	0	
12	18	0	
12	19	0	
12	20	0	
12	21	0	
12	22	0	
12	23	0	
12	24	0	
12	25	0	
12	26	0	
12	27	0	
12	28	0	
12	29	0	
12	30	0	
12	31	0	
12	32	0	
12	33	0	
12	34	0	
12	35	0	
12	36	0	
12	37	0	
12	38	0	
12	39	0	
12	40	0	
13	0	0	
13	1	0	
13	2	0	
13	3	0	
13	4	0	
13	5	0	
13	6	0	
13	7	0	
13	8	0	
13	9	0	
13	10	0	
13	11	0	
13	12	0	
13	13	0	
13	14	0	
13	15	0	
13	16	0	
13	17	0	
13	18	0	
13	19	0	
13	20	0	
13	21	0	
13	22	0	
13	23	0	
13	24	0	
13	25	0	
13	26	0	
13	27	0	
13	28	0	
13	29	0	
13	30	0	
13	31	0	
13	32	0	
13	33	0	
13	34	0	
13	35	0	
13	36	0	
13	37	0	
13	38	0	
13	39	0	
13	40	0	
14	0	0	
14	1	0	
14	2	0	
14	3	0	
14	4	0	
14	5	0	
14	6	0	
14	7	0	
14	8	0	
14	9	0	
14	10	0	
14	11	0	
14	12	0	
14	13	0	
14	14	0	
14	15	0	
14	16	0	
14	17	0	
14	18	0	
14	19	0	
14	20	0	
14	21	0	
14	22	0	
14	23	0	
14	24	0	
14	25	0	
14	26	0	
14	27	0	
14	28	0	
14	29	0	
14	30	0	
14	31	0	
14	32	0	
14	33	0	
14	34	0	
14	35	0	
14	36	0	
14	37	0	
14	38	0	
14	39	0	
14	40	0	
15	0	0	
15	1	0	
15	2	0	
15	3	0	
15	4	0	
15	5	0	
15	6	0	
15	7	0	
15	8	0	
15	9	0	
15	10	0	
15	11	0	
15	12	0	
15	13	0	
15	14	0	
15	15	0	
15	16	0	
15	17	0	
15	18	0	
15	19	0	
15	20	0	
15	21	0	
15	22	0	
15	23	0	
15	24	0	
15	25	0	
15	26	0	
15	27	0	
15	28	0	
15	29	0	
15	30	0	
15	31	0	
15	32	0	
15	33	0	
15	34	0	
15	35	0	
15	36	0	
15	37	0	
15	38	0	
15	39	0	
15	40	0	
16	0	0	
16	1	0	
16	2	0	
16	3	0	
16	4	0	
16	5	0	
16	6	0	
16	7	0	
16	8	0	
16	9	0	
16	10	0	
16	11	0	
16	12	0	
16	13	0	
16	14	0	
16	15	0	
16	16	0	
16	17	0	
16	18	0	
16	19	0	
16	20	0	
16	21	0	
16	22	0	
16	23	0	
16	24	0	
16	25	0	
16	26	0	
16	27	0	
16	28	0	
16	29	0	
16	30	0	
16	31	0	
16	32	0	
16	33	0	
16	34	0	
16	35	0	
16	36	0	
16	37	0	
16	38	0	
16	39	0	
16	40	0	
17	0	0	
17	1	0	
17	2	0	
17	3	0	
17	4	0	
17	5	0	
17	6	0	
17	7	0	
17	8	0	
17	9	0	
17	10	0	
17	11	0	
17	12	0	
17	13	0	
17	14	0	
17	15	0	
17	16	0	
17	17	0	
17	18	0	
17	19	0	
17	20	0	
17	21	0	
17	22	0	
17	23	0	
17	24	0	
17	25	0	
17	26	0	
17	27	0	
17	28	0	
17	29	0	
17	30	0	
17	31	0	
17	32	0	
17	33	0	
17	34	0	
17	35	0	
17	36	0	
17	37	0	
17	38	0	
17	39	0	
17	40	0	
18	0	0	
18	1	0	
18	2	0	
18	3	0	
18	4	0	
18	5	0	
18	6	0	
18	7	0	
18	8	0	
18	9	0	
18	10	0	
18	11	0	
18	12	0	
18	13	0	
18	14	0	
18	15	0	
18	16	0	
18	17	0	
18	18	0	
18	19	0	
18	20	0	
18	21	0	
18	22	0	
18	23	0	
18	24	0	
18	25	0	
18	26	0	
18	27	0	
18	28	0	
18	29	0	
18	30	0	
18	31	0	
18	32	0	
18	33	0	
18	34	0	
18	35	0	
18	36	0	
18	37	0	
18	38	0	
18	39	0	
18	40	0	
19	0	0	
19	1	0	
19	2	0	
19	3	0	
19	4	0	
19	5	0	
19	6	0	
19	7	0	
19	8	0	
19	9	0	
19	10	0	
19	11	0	
19	12	0	
19	13	0	
19	14	0	
19	15	0	
19	16	0	
19	17	0	
19	18	0	
19	19	0	
19	20	0	
19	21	0	
19	22	0	
19	23	0	
19	24	0	
19	25	0	
19	26	0	
19	27	0	
19	28	0	
19	29	0	
19	30	0	
19	31	0	
19	32	0	
19	33	0	
19	34	0	
19	35	0	
19	36	0	
19	37	0	
19	38	0	
19	39	0	
19	40	0	
20	0	0	
20	1	0	
20	2	0	
20	3	0	
20	4	0	
20	5	0	
20	6	0	
20	7	0	
20	8	0	
20	9	0	
20	10	0	
20	11	0	
20	12	0	
20	13	0	
20	14	0	
20	15	0	
20	16	0	
20	17	0	
20	18	0	
20	19	0	
20	20	0	
20	21	0	
20	22	0	
20	23	0	
20	24	0	
20	25	0	
20	26	0	
20	27	0	
20	28	0	
20	29	0	
20	30	0	
20	31	0	
20	32	0	
20	33	0	
20	34	0	
20	35	0	
20	36	0	
20	37	0	
20	38	0	
20	39	0	
20	40	0	
21	0	0	
21	1	0	
21	2	0	
21	3	0	
21	4	0	
21	5	0	
21	6	0	
21	7	0	
21	8	0	
21	9	0	
21	10	0	
21	11	0	
21	12	0	
21	13	0	
21	14	0	
21	15	0	
21	16	0	
21	17	0	
21	18	0	
21	19	0	
21	20	0	
21	21	0	
21	22	0	
21	23	0	
21	24	0	
21	25	0	
21	26	0	
21	27	0	
21	28	0	
21	29	0	
21	30	0	
21	31	0	
21	32	0	
21	33	0	
21	34	0	
21	35	0	
21	36	0	
21	37	0	
21	38	0	
21	39	0	
21	40	0	
22	0	0	
22	1	0	
22	2	0	
22	3	0	
22	4	0	
22	5	0	
22	6	0	
22	7	0	
22	8	0	
22	9	0	
22	10	0	
22	11	0	
22	12	0	
22	13	0	
22	14	0	
22	15	0	
22	16	0	
22	17	0	
22	18	0	
22	19	0	
22	20	0	
22	21	0	
22	22	0	
22	23	0	
22	24	0	
22	25	0	
22	26	0	
22	27	0	
22	28	0	
22	29	0	
22	30	0	
22	31	0	
22	32	0	
22	33	0	
22	34	0	
22	35	0	
22	36	0	
22	37	0	
22	38	0	
22	39	0	
22	40	0	
23	0	0	
23	1	0	
23	2	0	
23	3	0	
23	4	0	
23	5	0	
23	6	0	
23	7	0	
23	8	0	
23	9	0	
23	10	0	
23	11	0	
23	12	0	
23	13	0	
23	14	0	
23	15	0	
23	16	0	
23	17	0	
23	18	0	
23	19	0	
23	20	0	
23	21	0	
23	22	0	
23	23	0	
23	24	0	
23	25	0	
23	26	0	
23	27	0	
23	28	0	
23	29	0	
23	30	0	
23	31	0	
23	32	0	
23	33	0	
23	34	0	
23	35	0	
23	36	0	
23	37	0	
23	38	0	
23	39	0	
23	40	0	
24	0	0	
24	1	0	
24	2	0	
24	3	0	
24	4	0	
24	5	0	
24	6	0	
24	7	0	
24	8	0	
24	9	0	
24	10	0	
24	11	0	
24	12	0	
24	13	0	
24	14	0	
24	15	0	
24	16	0	
24	17	0	
24	18	0	
24	19	0	
24	20	0	
24	21	0	
24	22	0	
24	23	0	
24	24	0	
24	25	0	
24	26	0	
24	27	0	
24	28	0	
24	29	0	
24	30	0	
24	31	0	
24	32	0	
24	33	0	
24	34	0	
24	35	0	
24	36	0	
24	37	0	
24	38	0	
24	39	0	
24	40	0	
25	0	0	
25	1	0	
25	2	0	
25	3	0	
25	4	0	
25	5	0	
25	6	0	
25	7	0	
25	8	0	
25	9	0	
25	10	0	
25	11	0	
25	12	0	
25	13	0	
25	14	0	
25	15	0	
25	16	0	
25	17	0	
25	18	0	
25	19	0	
25	20	0	
25	21	0	
25	22	0	
25	23	0	
25	24	0	
25	25	0	
25	26	0	
25	27	0	
25	28	0	
25	29	0	
25	30	0	
25	31	0	
25	32	0	
25	33	0	
25	34	0	
25	35	0	
25	36	0	
25	37	0	
25	38	0	
25	39	0	
25	40	0	
26	0	0	
26	1	0	
26	2	0	
26	3	0	
26	4	0	
26	5	0	
26	6	0	
26	7	0	
26	8	0	
26	9	0	
26	10	0	
26	11	0	
26	12	0	
26	13	0	
26	14	0	
26	15	0	
26	16	0	
26	17	0	
26	18	0	
26	19	0	
26	20	0	
26	21	0	
26	22	0	
26	23	0	
26	24	0	
26	25	0	
26	26	0	
26	27	0	
26	28	0	
26	29	0	
26	30	0	
26	31	0	
26	32	0	
26	33	0	
26	34	0	
26	35	0	
26	36	0	
26	37	0	
26	38	0	
26	39	0	
26	40	0	
27	0	0	
27	1	0	
27	2	0	
27	3	0	
27	4	0	
27	5	0	
27	6	0	
27	7	0	
27	8	0	
27	9	0	
27	10	0	
27	11	0	
27	12	0	
27	13	0	
27	14	0	
27	15	0	
27	16	0	
27	17	0	
27	18	0	
27	19	0	
27	20	0	
27	21	0	
27	22	0	
27	23	0	
27	24	0	
27	25	0	
27	26	0	
27	27	0	
27	28	0	
27	29	0	
27	30	0	
27	31	0	
27	32	0	
27	33	0	
27	34	0	
27	35	0	
27	36	0	
27	37	0	
27	38	0	
27	39	0	
27	40	0	
28	0	0	
28	1	0	
28	2	0	
28	3	0	
28	4	0	
28	5	0	
28	6	0	
28	7	0	
28	8	0	
28	9	0	
28	10	0	
28	11	0	
28	12	0	
28	13	0	
28	14	0	
28	15	0	
28	16	0	
28	17	0	
28	18	0	
28	19	0	
28	20	0	
28	21	0	
28	22	0	
28	23	0	
28	24	0	
28	25	0	
28	26	0	
28	27	0	
28	28	0	
28	29	0	
28	30	0	
[...]
POINT_DATA	7401
VECTORS d float
-6.9863e-017	-3.84722e-017	0	
-2.65313e-017	-1.01415e-017	0	
-2.09594e-017	-5.15461e-018	0	
-1.80374e-017	-4.31008e-018	0	
-1.54917e-017	-3.7871e-018	0	
-1.33084e-017	-3.22432e-018	0	
-1.08415e-017	-2.20615e-018	0	
-6.76671e-018	-1.58296e-019	0	
-6.94615e-018	2.23744e-019	0	
-7.10798e-018	-1.31648e-018	0	
-7.12703e-018	-3.02827e-018	0	
-7.04102e-018	-4.38594e-018	0	
-6.65478e-018	-5.2287e-018	0	
-5.92342e-018	-5.68032e-018	0	
-5.03659e-018	-5.91298e-018	0	
-4.1341e-018	-6.04995e-018	0	
-3.26175e-018	-6.14848e-018	0	
-2.42146e-018	-6.22519e-018	0	
-1.60358e-018	-6.28163e-018	0	
-7.99172e-019	-6.31641e-018	0	
-1.11263e-021	-6.32792e-018	0	
7.99622e-019	-6.31617e-018	0	
1.60186e-018	-6.28154e-018	0	
2.42027e-018	-6.22476e-018	0	
3.26219e-018	-6.14825e-018	0	
4.13597e-018	-6.05013e-018	0	
5.03685e-018	-5.91294e-018	0	
5.92338e-018	-5.68029e-018	0	
6.65477e-018	-5.22868e-018	0	
7.041e-018	-4.38592e-018	0	
7.12704e-018	-3.02824e-018	0	
7.10799e-018	-1.31646e-018	0	
6.94617e-018	2.23758e-019	0	
6.76675e-018	-1.58282e-019	0	
1.08415e-017	-2.20613e-018	0	
1.33084e-017	-3.22431e-018	0	
1.54917e-017	-3.7871e-018	0	
1.80374e-017	-4.31008e-018	0	
2.09594e-017	-5.15461e-018	0	
2.65313e-017	-1.01415e-017	0	
6.9863e-017	-3.84722e-017	0	
-2.21633e-006	-1.90884e-006	0	
-1.35641e-006	-1.32482e-006	0	
-1.01638e-006	-9.8688e-007	0	
-8.45771e-007	-8.23894e-007	0	
-7.20648e-007	-7.1783e-007	0	
-6.19241e-007	-6.41672e-007	0	
-5.30788e-007	-5.80142e-007	0	
-4.06847e-007	-5.34987e-007	0	
-3.69964e-007	-5.60815e-007	0	
-3.4653e-007	-6.38138e-007	0	
-3.211e-007	-7.31212e-007	0	
-2.94171e-007	-8.15874e-007	0	
-2.67094e-007	-8.79015e-007	0	
-2.37086e-007	-9.23173e-007	0	
-2.04127e-007	-9.55251e-007	0	
-1.69821e-007	-9.7976e-007	0	
-1.35328e-007	-9.98757e-007	0	
-1.01095e-007	-1.01309e-006	0	
-6.71966e-008	-1.02312e-006	0	
-3.35532e-008	-1.02907e-006	0	
-1.41507e-011	-1.03102e-006	0	
3.35241e-008	-1.02905e-006	0	
6.71567e-008	-1.02311e-006	0	
1.01074e-007	-1.01304e-006	0	
1.35332e-007	-9.98711e-007	0	
1.69862e-007	-9.79741e-007	0	
2.04138e-007	-9.55245e-007	0	
2.37088e-007	-9.23169e-007	0	
2.67094e-007	-8.79011e-007	0	
2.94171e-007	-8.15872e-007	0	
3.211e-007	-7.3121e-007	0	
3.46531e-007	-6.38136e-007	0	
3.69965e-007	-5.60814e-007	0	
4.06848e-007	-5.34986e-007	0	
5.30789e-007	-5.80141e-007	0	
6.19241e-007	-6.41672e-007	0	
7.20648e-007	-7.17829e-007	0	
8.45771e-007	-8.23894e-007	0	
1.01638e-006	-9.8688e-007	0	
1.35641e-006	-1.32482e-006	0	
2.21633e-006	-1.90884e-006	0	
-3.71981e-006	-3.1953e-006	0	
-2.7326e-006	-2.6087e-006	0	
-2.14827e-006	-2.15543e-006	0	
-1.77328e-006	-1.84855e-006	0	
-1.49899e-006	-1.63878e-006	0	
-1.27757e-006	-1.49269e-006	0	
-1.08055e-006	-1.38967e-006	0	
-8.70098e-007	-1.32929e-006	0	
-7.12443e-007	-1.34327e-006	0	
-6.30147e-007	-1.43722e-006	0	
-5.68839e-007	-1.56511e-006	0	
-5.14642e-007	-1.69661e-006	0	
-4.66053e-007	-1.80858e-006	0	
-4.17435e-007	-1.89282e-006	0	
-3.64182e-007	-1.9542e-006	0	
-3.06372e-007	-1.99993e-006	0	
-2.46025e-007	-2.03459e-006	0	
-1.84679e-007	-2.06045e-006	0	
-1.23099e-007	-2.0785e-006	0	
-6.15516e-008	-2.08919e-006	0	
-1.14722e-011	-2.09273e-006	0	
6.14821e-008	-2.08918e-006	0	
1.23054e-007	-2.07847e-006	0	
1.84658e-007	-2.06041e-006	0	
2.46037e-007	-2.03455e-006	0	
3.064e-007	-1.99988e-006	0	
3.64195e-007	-1.95417e-006	0	
4.17441e-007	-1.8928e-006	0	
4.66055e-007	-1.80857e-006	0	
5.14643e-007	-1.6966e-006	0	
5.6884e-007	-1.5651e-006	0	
6.30148e-007	-1.43722e-006	0	
7.12444e-007	-1.34327e-006	0	
8.70099e-007	-1.32929e-006	0	
1.08055e-006	-1.38967e-006	0	
1.27757e-006	-1.49269e-006	0	
1.49899e-006	-1.63878e-006	0	
1.77328e-006	-1.84855e-006	0	
2.14827e-006	-2.15543e-006	0	
2.7326e-006	-2.6087e-006	0	
3.71981e-006	-3.1953e-006	0	
-5.05736e-006	-4.36529e-006	0	
-4.0474e-006	-3.8207e-006	0	
-3.29509e-006	-3.34351e-006	0	
-2.74255e-006	-2.96923e-006	0	
-2.31653e-006	-2.69243e-006	0	
-1.96397e-006	-2.49338e-006	0	
-1.64898e-006	-2.35614e-006	0	
-1.34843e-006	-2.27216e-006	0	
-1.05553e-006	-2.25528e-006	0	
-8.88261e-007	-2.33287e-006	0	
-7.74273e-007	-2.46488e-006	0	
-6.85953e-007	-2.61833e-006	0	
-6.13924e-007	-2.76602e-006	0	
-5.50064e-007	-2.88844e-006	0	
-4.84619e-007	-2.98083e-006	0	
-4.1249e-007	-3.04869e-006	0	
-3.34326e-007	-3.0987e-006	0	
-2.52532e-007	-3.13516e-006	0	
-1.68964e-007	-3.16029e-006	0	
-8.46314e-008	-3.17508e-006	0	
-2.02517e-011	-3.17996e-006	0	
8.45645e-008	-3.17504e-006	0	
1.68906e-007	-3.16024e-006	0	
2.52516e-007	-3.13511e-006	0	
3.34338e-007	-3.09864e-006	0	
4.12504e-007	-3.04865e-006	0	
4.84632e-007	-2.9808e-006	0	
5.50072e-007	-2.88842e-006	0	
6.13928e-007	-2.76601e-006	0	
6.85955e-007	-2.61832e-006	0	
7.74275e-007	-2.46488e-006	0	
8.88262e-007	-2.33287e-006	0	
1.05553e-006	-2.25528e-006	0	
1.34843e-006	-2.27216e-006	0	
1.64898e-006	-2.35614e-006	0	
1.96397e-006	-2.49338e-006	0	
2.31653e-006	-2.69242e-006	0	
2.74255e-006	-2.96923e-006	0	
3.29509e-006	-3.34351e-006	0	
4.0474e-006	-3.82069e-006	0	
5.05736e-006	-4.36529e-006	0	
-6.30474e-006	-5.50165e-006	0	
-5.25628e-006	-4.99385e-006	0	
-4.40031e-006	-4.52916e-006	0	
-3.71245e-006	-4.13705e-006	0	
-3.14853e-006	-3.82611e-006	0	
-2.66691e-006	-3.59177e-006	0	
-2.23455e-006	-3.42535e-006	0	
-1.83057e-006	-3.31903e-006	0	
-1.42646e-006	-3.27381e-006	0	
-1.16358e-006	-3.31861e-006	0	
-9.80292e-007	-3.42994e-006	0	
-8.43273e-007	-3.58051e-006	0	
-7.3612e-007	-3.74366e-006	0	
-6.48961e-007	-3.89531e-006	0	
-5.70192e-007	-4.01956e-006	0	
-4.888e-007	-4.11329e-006	0	
-3.99996e-007	-4.18149e-006	0	
-3.04548e-007	-4.22999e-006	0	
-2.04857e-007	-4.26269e-006	0	
-1.02893e-007	-4.28168e-006	0	
-2.51234e-011	-4.28792e-006	0	
1.02843e-007	-4.28167e-006	0	
2.04801e-007	-4.26265e-006	0	
3.04531e-007	-4.22994e-006	0	
3.99995e-007	-4.18145e-006	0	
4.88809e-007	-4.11326e-006	0	
5.70203e-007	-4.01954e-006	0	
6.48969e-007	-3.89529e-006	0	
7.36125e-007	-3.74365e-006	0	
8.43276e-007	-3.5805e-006	0	
9.80295e-007	-3.42994e-006	0	
1.16358e-006	-3.31861e-006	0	
1.42646e-006	-3.27381e-006	0	
1.83057e-006	-3.31902e-006	0	
2.23455e-006	-3.42535e-006	0	
2.66692e-006	-3.59177e-006	0	
3.14854e-006	-3.82611e-006	0	
3.71245e-006	-4.13705e-006	0	
4.40031e-006	-4.52915e-006	0	
5.25628e-006	-4.99384e-006	0	
6.30474e-006	-5.50165e-006	0	
-7.47681e-006	-6.65216e-006	0	
-6.39023e-006	-6.17219e-006	0	
-5.455e-006	-5.72613e-006	0	
-4.6593e-006	-5.33514e-006	0	
-3.97634e-006	-5.011e-006	0	
-3.3757e-006	-4.7561e-006	0	
-2.83002e-006	-4.56767e-006	0	
-2.31778e-006	-4.44077e-006	0	
-1.82176e-006	-4.37209e-006	0	
-1.46814e-006	-4.38371e-006	0	
-1.20894e-006	-4.46364e-006	0	
-1.01241e-006	-4.59343e-006	0	
-8.58906e-007	-4.75128e-006	0	
-7.36817e-007	-4.91473e-006	0	
-6.35245e-007	-5.06317e-006	0	
-5.41426e-007	-5.18363e-006	0	
-4.4475e-007	-5.27372e-006	0	
-3.40954e-007	-5.33747e-006	0	
-2.30714e-007	-5.37976e-006	0	
-1.16309e-007	-5.40397e-006	0	
-1.6554e-011	-5.41185e-006	0	
1.16267e-007	-5.40394e-006	0	
2.3067e-007	-5.37974e-006	0	
3.40927e-007	-5.33746e-006	0	
4.44744e-007	-5.2737e-006	0	
5.4143e-007	-5.18361e-006	0	
6.35252e-007	-5.06316e-006	0	
7.36824e-007	-4.91472e-006	0	
8.5891e-007	-4.75128e-006	0	
1.01241e-006	-4.59342e-006	0	
1.20895e-006	-4.46364e-006	0	
1.46814e-006	-4.3837e-006	0	
1.82176e-006	-4.37208e-006	0	
2.31778e-006	-4.44077e-006	0	
2.83002e-006	-4.56766e-006	0	
3.3757e-006	-4.7561e-006	0	
3.97634e-006	-5.01099e-006	0	
4.6593e-006	-5.33514e-006	0	
5.455e-006	-5.72613e-006	0	
6.39023e-006	-6.17219e-006	0	
7.47681e-006	-6.65216e-006	0	
-8.59013e-006	-7.82688e-006	0	
-7.46251e-006	-7.37042e-006	0	
-6.45999e-006	-6.94322e-006	0	
-5.57478e-006	-6.56093e-006	0	
-4.78936e-006	-6.23458e-006	0	
-4.0816e-006	-5.96928e-006	0	
-3.4296e-006	-5.76578e-006	0	
-2.8121e-006	-5.62125e-006	0	
-2.23727e-006	-5.53315e-006	0	
-1.80185e-006	-5.51559e-006	0	
-1.46761e-006	-5.56281e-006	0	
-1.2069e-006	-5.66355e-006	0	
-9.99917e-007	-5.80185e-006	0	
-8.33928e-007	-5.95948e-006	0	
-6.988e-007	-6.11709e-006	0	
-5.83237e-007	-6.25723e-006	0	
-4.74754e-007	-6.36926e-006	0	
-3.63905e-007	-6.4511e-006	0	
-2.47067e-007	-6.50571e-006	0	
-1.24931e-007	-6.5368e-006	0	
-8.54275e-012	-6.54689e-006	0	
1.24906e-007	-6.5368e-006	0	
2.47025e-007	-6.5057e-006	0	
3.6388e-007	-6.45109e-006	0	
4.74745e-007	-6.36925e-006	0	
5.83236e-007	-6.25722e-006	0	
6.98804e-007	-6.11708e-006	0	
8.33932e-007	-5.95948e-006	0	
9.99921e-007	-5.80185e-006	0	
1.2069e-006	-5.66355e-006	0	
1.46761e-006	-5.5628e-006	0	
1.80186e-006	-5.51558e-006	0	
2.23727e-006	-5.53314e-006	0	
2.8121e-006	-5.62125e-006	0	
3.4296e-006	-5.76578e-006	0	
4.0816e-006	-5.96928e-006	0	
4.78936e-006	-6.23458e-006	0	
5.57478e-006	-6.56092e-006	0	
6.45999e-006	-6.94322e-006	0	
7.46251e-006	-7.37041e-006	0	
8.59013e-006	-7.82688e-006	0	
-9.65292e-006	-9.03288e-006	0	
-8.48371e-006	-8.59642e-006	0	
-7.42073e-006	-8.18649e-006	0	
-6.45787e-006	-7.81508e-006	0	
-5.58274e-006	-7.49177e-006	0	
-4.77893e-006	-7.22237e-006	0	
-4.02921e-006	-7.00927e-006	0	
-3.31372e-006	-6.85041e-006	0	
-2.66979e-006	-6.74592e-006	0	
-2.16104e-006	-6.70341e-006	0	
-1.75594e-006	-6.72032e-006	0	
-1.43093e-006	-6.79024e-006	0	
-1.16744e-006	-6.90208e-006	0	
-9.52534e-007	-7.04196e-006	0	
-7.76419e-007	-7.19389e-006	0	
-6.29625e-007	-7.34099e-006	0	
-5.01026e-007	-7.46849e-006	0	
-3.79246e-007	-7.56752e-006	0	
-2.56342e-007	-7.63598e-006	0	
-1.29541e-007	-7.67556e-006	0	
-7.84165e-012	-7.68846e-006	0	
1.2953e-007	-7.67556e-006	0	
2.56308e-007	-7.63598e-006	0	
3.79226e-007	-7.56752e-006	0	
5.01015e-007	-7.46849e-006	0	
6.29621e-007	-7.34099e-006	0	
7.76419e-007	-7.19388e-006	0	
9.52536e-007	-7.04195e-006	0	
1.16745e-006	-6.90208e-006	0	
1.43093e-006	-6.79023e-006	0	
1.75594e-006	-6.72031e-006	0	
2.16104e-006	-6.70341e-006	0	
2.66979e-006	-6.74592e-006	0	
3.31372e-006	-6.8504e-006	0	
4.02921e-006	-7.00926e-006	0	
4.77893e-006	-7.22237e-006	0	
5.58274e-006	-7.49177e-006	0	
6.45787e-006	-7.81508e-006	0	
7.42073e-006	-8.18648e-006	0	
8.48371e-006	-8.59642e-006	0	
9.65292e-006	-9.03288e-006	0	
-1.0672e-005	-1.02726e-005	0	
-9.4614e-006	-9.85353e-006	0	
-8.34253e-006	-9.45899e-006	0	
-7.31022e-006	-9.09859e-006	0	
-6.35503e-006	-8.78048e-006	0	
-5.46449e-006	-8.51049e-006	0	
-4.62566e-006	-8.29179e-006	0	
-3.82186e-006	-8.12208e-006	0	
-3.11689e-006	-8.00344e-006	0	
-2.54203e-006	-7.93926e-006	0	
-2.07116e-006	-7.92898e-006	0	
-1.68401e-006	-7.96927e-006	0	
-1.36375e-006	-8.05256e-006	0	
-1.09787e-006	-8.16849e-006	0	
-8.76872e-007	-8.30444e-006	0	
-6.92487e-007	-8.44601e-006	0	
-5.3566e-007	-8.57828e-006	0	
-3.95966e-007	-8.68854e-006	0	
-2.63586e-007	-8.76906e-006	0	
-1.32217e-007	-8.81725e-006	0	
-5.28468e-012	-8.8332e-006	0	
1.32208e-007	-8.81725e-006	0	
2.63566e-007	-8.76907e-006	0	
3.95949e-007	-8.68854e-006	0	
5.35649e-007	-8.57828e-006	0	
6.92482e-007	-8.44601e-006	0	
8.7687e-007	-8.30444e-006	0	
1.09787e-006	-8.16848e-006	0	
1.36375e-006	-8.05255e-006	0	
1.68401e-006	-7.96927e-006	0	
2.07117e-006	-7.92898e-006	0	
2.54203e-006	-7.93926e-006	0	
3.11689e-006	-8.00343e-006	0	
3.82186e-006	-8.12208e-006	0	
4.62566e-006	-8.29178e-006	0	
5.46449e-006	-8.51049e-006	0	
6.35503e-006	-8.78048e-006	0	
7.31022e-006	-9.09859e-006	0	
8.34253e-006	-9.45898e-006	0	
9.4614e-006	-9.85353e-006	0	
1.0672e-005	-1.02726e-005	0	
-1.16528e-005	-1.15472e-005	0	
-1.04015e-005	-1.11433e-005	0	
-9.23022e-006	-1.07624e-005	0	
-8.13454e-006	-1.04123e-005	0	
-7.10675e-006	-1.00999e-005	0	
-6.13709e-006	-9.83082e-006	0	
-5.21571e-006	-9.60885e-006	0	
-4.33478e-006	-9.43195e-006	0	
-3.57645e-006	-9.30065e-006	0	
-2.94168e-006	-9.21727e-006	0	
-2.41003e-006	-9.18286e-006	0	
-1.9638e-006	-9.19577e-006	0	
-1.58802e-006	-9.25084e-006	0	
-1.27098e-006	-9.34039e-006	0	
-1.00357e-006	-9.45455e-006	0	
-7.78267e-007	-9.58151e-006	0	
-5.87653e-007	-9.70796e-006	0	
-4.23191e-007	-9.8204e-006	0	
-2.75496e-007	-9.90748e-006	0	
-1.36252e-007	-9.96191e-006	0	
-3.56581e-012	-9.98033e-006	0	
1.36243e-007	-9.96191e-006	0	
2.75485e-007	-9.90748e-006	0	
4.23179e-007	-9.8204e-006	0	
5.87644e-007	-9.70796e-006	0	
7.78261e-007	-9.58151e-006	0	
1.00356e-006	-9.45455e-006	0	
1.27098e-006	-9.34039e-006	0	
1.58802e-006	-9.25084e-006	0	
1.9638e-006	-9.19577e-006	0	
2.41003e-006	-9.18286e-006	0	
2.94168e-006	-9.21727e-006	0	
3.57645e-006	-9.30065e-006	0	
4.33478e-006	-9.43194e-006	0	
5.21571e-006	-9.60884e-006	0	
6.13709e-006	-9.83082e-006	0	
7.10675e-006	-1.00999e-005	0	
8.13454e-006	-1.04123e-005	0	
9.23022e-006	-1.07624e-005	0	
1.04015e-005	-1.11433e-005	0	
1.16528e-005	-1.15472e-005	0	
-1.25999e-005	-1.28569e-005	0	
-1.13087e-005	-1.24663e-005	0	
-1.00879e-005	-1.20974e-005	0	
-8.93364e-006	-1.17569e-005	0	
-7.83939e-006	-1.14503e-005	0	
-6.79703e-006	-1.11826e-005	0	
-5.79549e-006	-1.09573e-005	0	
-4.85069e-006	-1.07746e-005	0	
-4.04639e-006	-1.06332e-005	0	
-3.35725e-006	-1.05332e-005	0	
-2.76936e-006	-1.04774e-005	0	
-2.26736e-006	-1.04654e-005	0	
-1.8381e-006	-1.04936e-005	0	
-1.47076e-006	-1.05564e-005	0	
-1.15679e-006	-1.0646e-005	0	
-8.89203e-007	-1.07528e-005	0	
-6.61676e-007	-1.08653e-005	0	
-4.6734e-007	-1.0971e-005	0	
-2.98136e-007	-1.10571e-005	0	
-1.45202e-007	-1.11132e-005	0	
-2.92532e-012	-1.11327e-005	0	
1.45196e-007	-1.11132e-005	0	
2.98128e-007	-1.10571e-005	0	
4.67331e-007	-1.0971e-005	0	
6.61668e-007	-1.08653e-005	0	
8.89198e-007	-1.07528e-005	0	
1.15678e-006	-1.0646e-005	0	
1.47076e-006	-1.05564e-005	0	
1.8381e-006	-1.04936e-005	0	
2.26736e-006	-1.04654e-005	0	
2.76936e-006	-1.04774e-005	0	
3.35725e-006	-1.05332e-005	0	
4.04639e-006	-1.06332e-005	0	
4.85069e-006	-1.07746e-005	0	
5.79549e-006	-1.09573e-005	0	
6.79703e-006	-1.11826e-005	0	
7.83939e-006	-1.14503e-005	0	
8.93365e-006	-1.17569e-005	0	
1.00879e-005	-1.20974e-005	0	
1.13087e-005	-1.24663e-005	0	
1.25999e-005	-1.28569e-005	0	
-1.35171e-005	-1.42015e-005	0	
-1.21869e-005	-1.38227e-005	0	
-1.09191e-005	-1.34646e-005	0	
-9.71006e-006	-1.31328e-005	0	
-8.55443e-006	-1.28321e-005	0	
-7.44522e-006	-1.25667e-005	0	
-6.36982e-006	-1.23387e-005	0	
-5.37336e-006	-1.21494e-005	0	
-4.52431e-006	-1.19985e-005	0	
-3.78601e-006	-1.18842e-005	0	
-3.14612e-006	-1.18095e-005	0	
-2.5917e-006	-1.17747e-005	0	
-2.11132e-006	-1.17778e-005	0	
-1.69514e-006	-1.18144e-005	0	
-1.3352e-006	-1.18785e-005	0	
-1.02502e-006	-1.1962e-005	0	
-7.58971e-007	-1.20554e-005	0	
-5.31309e-007	-1.21473e-005	0	
-3.35127e-007	-1.22254e-005	0	
-1.61607e-007	-1.2278e-005	0	
-2.23907e-012	-1.22965e-005	0	
1.61602e-007	-1.2278e-005	0	
3.35122e-007	-1.22254e-005	0	
5.31303e-007	-1.21473e-005	0	
7.58965e-007	-1.20554e-005	0	
1.02502e-006	-1.1962e-005	0	
1.3352e-006	-1.18785e-005	0	
1.69514e-006	-1.18144e-005	0	
2.11132e-006	-1.17778e-005	0	
2.5917e-006	-1.17747e-005	0	
3.14612e-006	-1.18095e-005	0	
3.78601e-006	-1.18842e-005	0	
4.52431e-006	-1.19985e-005	0	
5.37337e-006	-1.21494e-005	0	
6.36982e-006	-1.23387e-005	0	
7.44522e-006	-1.25667e-005	0	
8.55443e-006	-1.28321e-005	0	
9.71006e-006	-1.31328e-005	0	
1.09191e-005	-1.34646e-005	0	
1.21869e-005	-1.38227e-005	0	
1.35171e-005	-1.42015e-005	0	
-1.4408e-005	-1.55808e-005	0	
-1.30397e-005	-1.52125e-005	0	
-1.17266e-005	-1.4864e-005	0	
-1.0466e-005	-1.45401e-005	0	
-9.25314e-006	-1.42451e-005	0	
-8.08256e-006	-1.39825e-005	0	
-6.94287e-006	-1.37525e-005	0	
-5.90323e-006	-1.35566e-005	0	
-5.00913e-006	-1.33958e-005	0	
-4.22544e-006	-1.32685e-005	0	
-3.53748e-006	-1.31766e-005	0	
-2.93393e-006	-1.31211e-005	0	
-2.40491e-006	-1.31007e-005	0	
-1.94159e-006	-1.31122e-005	0	
-1.53666e-006	-1.31508e-005	0	
-1.18405e-006	-1.32099e-005	0	
-8.78598e-007	-1.32812e-005	0	
-6.15133e-007	-1.33548e-005	0	
-3.87332e-007	-1.34195e-005	0	
-1.86342e-007	-1.34642e-005	0	
-1.6946e-012	-1.34802e-005	0	
1.86338e-007	-1.34642e-005	0	
3.87328e-007	-1.34195e-005	0	
6.15129e-007	-1.33548e-005	0	
8.78593e-007	-1.32812e-005	0	
1.18405e-006	-1.32099e-005	0	
1.53665e-006	-1.31508e-005	0	
1.94159e-006	-1.31123e-005	0	
2.40491e-006	-1.31007e-005	0	
2.93393e-006	-1.31211e-005	0	
3.53748e-006	-1.31766e-005	0	
4.22544e-006	-1.32685e-005	0	
5.00913e-006	-1.33958e-005	0	
5.90323e-006	-1.35566e-005	0	
6.94288e-006	-1.37525e-005	0	
8.08256e-006	-1.39825e-005	0	
9.25314e-006	-1.42451e-005	0	
1.0466e-005	-1.45401e-005	0	
1.17266e-005	-1.4864e-005	0	
1.30397e-005	-1.52125e-005	0	
1.4408e-005	-1.55808e-005	0	
-1.52754e-005	-1.69946e-005	0	
-1.38697e-005	-1.66355e-005	0	
-1.25132e-005	-1.62955e-005	0	
-1.12036e-005	-1.59785e-005	0	
-9.93688e-006	-1.56884e-005	0	
-8.70939e-006	-1.54285e-005	0	
-7.51453e-006	-1.51976e-005	0	
-6.43794e-006	-1.49956e-005	0	
-5.50056e-006	-1.48246e-005	0	
-4.67374e-006	-1.46849e-005	0	
-3.94095e-006	-1.45773e-005	0	
-3.29133e-006	-1.45027e-005	0	
-2.71608e-006	-1.44604e-005	0	
-2.20738e-006	-1.44481e-005	0	
-1.75851e-006	-1.44619e-005	0	
-1.36381e-006	-1.44963e-005	0	
-1.01831e-006	-1.45442e-005	0	
-7.16984e-007	-1.45972e-005	0	
-4.53536e-007	-1.46457e-005	0	
-2.18849e-007	-1.46799e-005	0	
-1.38841e-012	-1.46923e-005	0	
2.18846e-007	-1.46799e-005	0	
4.53533e-007	-1.46457e-005	0	
7.1698e-007	-1.45972e-005	0	
1.01831e-006	-1.45442e-005	0	
1.36381e-006	-1.44963e-005	0	
1.75851e-006	-1.44619e-005	0	
2.20738e-006	-1.44481e-005	0	
2.71607e-006	-1.44604e-005	0	
3.29133e-006	-1.45027e-005	0	
3.94095e-006	-1.45773e-005	0	
4.67374e-006	-1.46849e-005	0	
5.50056e-006	-1.48246e-005	0	
6.43794e-006	-1.49956e-005	0	
7.51453e-006	-1.51976e-005	0	
8.7094e-006	-1.54285e-005	0	
9.93689e-006	-1.56884e-005	0	
1.12036e-005	-1.59785e-005	0	
1.25132e-005	-1.62955e-005	0	
1.38697e-005	-1.66355e-005	0	
1.52754e-005	-1.69946e-005	0	
-1.61221e-005	-1.84426e-005	0	
-1.46795e-005	-1.80918e-005	0	
-1.32812e-005	-1.77592e-005	0	
-1.19249e-005	-1.74483e-005	0	
-1.06073e-005	-1.71622e-005	0	
-9.32474e-006	-1.6904e-005	0	
-8.08321e-006	-1.66732e-005	0	
-6.97594e-006	-1.64654e-005	0	
-5.9979e-006	-1.62846e-005	0	
-5.12966e-006	-1.61327e-005	0	
-4.35445e-006	-1.60104e-005	0	
-3.66133e-006	-1.59182e-005	0	
-3.04208e-006	-1.58555e-005	0	
-2.48965e-006	-1.58209e-005	0	
-1.99787e-006	-1.58109e-005	0	
-1.56134e-006	-1.58212e-005	0	
-1.17513e-006	-1.58459e-005	0	
-8.34024e-007	-1.58778e-005	0	
-5.31399e-007	-1.59091e-005	0	
-2.57771e-007	-1.59319e-005	0	
-1.13995e-012	-1.59403e-005	0	
2.57768e-007	-1.59319e-005	0	
5.31397e-007	-1.59091e-005	0	
8.34021e-007	-1.58778e-005	0	
1.17512e-006	-1.58459e-005	0	
1.56134e-006	-1.58212e-005	0	
1.99786e-006	-1.58109e-005	0	
2.48964e-006	-1.58209e-005	0	
3.04208e-006	-1.58555e-005	0	
3.66133e-006	-1.59182e-005	0	
4.35445e-006	-1.60104e-005	0	
5.12966e-006	-1.61327e-005	0	
5.9979e-006	-1.62846e-005	0	
6.97594e-006	-1.64654e-005	0	
8.08321e-006	-1.66732e-005	0	
9.32474e-006	-1.6904e-005	0	
1.06073e-005	-1.71622e-005	0	
1.19249e-005	-1.74483e-005	0	
1.32812e-005	-1.77592e-005	0	
1.46795e-005	-1.80918e-005	0	
1.61221e-005	-1.84426e-005	0	
-1.69501e-005	-1.99247e-005	0	
-1.54712e-005	-1.95814e-005	0	
-1.40324e-005	-1.92557e-005	0	
-1.26317e-005	-1.89502e-005	0	
-1.12661e-005	-1.86675e-005	0	
-9.92886e-006	-1.841e-005	0	
-8.64888e-006	-1.81775e-005	0	
-7.51563e-006	-1.79651e-005	0	
-6.50009e-006	-1.77752e-005	0	
-5.59207e-006	-1.76118e-005	0	
-4.77619e-006	-1.74757e-005	0	
-4.0416e-006	-1.7367e-005	0	
-3.38023e-006	-1.72855e-005	0	
-2.7855e-006	-1.72299e-005	0	
-2.25164e-006	-1.71977e-005	0	
-1.77341e-006	-1.71851e-005	0	
-1.34573e-006	-1.71876e-005	0	
-9.63039e-007	-1.71992e-005	0	
-6.18225e-007	-1.72138e-005	0	
-3.01523e-007	-1.72256e-005	0	
-9.89013e-013	-1.72301e-005	0	
3.01521e-007	-1.72256e-005	0	
6.18223e-007	-1.72138e-005	0	
9.63036e-007	-1.71992e-005	0	
1.34573e-006	-1.71876e-005	0	
1.77341e-006	-1.71851e-005	0	
2.25164e-006	-1.71977e-005	0	
2.7855e-006	-1.72299e-005	0	
3.38023e-006	-1.72855e-005	0	
4.0416e-006	-1.7367e-005	0	
4.77619e-006	-1.74757e-005	0	
5.59207e-006	-1.76118e-005	0	
6.50009e-006	-1.77752e-005	0	
7.51563e-006	-1.79651e-005	0	
8.64888e-006	-1.81775e-005	0	
9.92886e-006	-1.841e-005	0	
1.12661e-005	-1.86675e-005	0	
1.26317e-005	-1.89502e-005	0	
1.40324e-005	-1.92557e-005	0	
1.54712e-005	-1.95814e-005	0	
1.69501e-005	-1.99247e-005	0	
-1.77612e-005	-2.14411e-005	0	
-1.62464e-005	-2.11046e-005	0	