# vtk DataFile Version 4.1
vtk output
ASCII
DATASET UNSTRUCTURED_GRID

POINTS	7401	float
0	0	0	
0	1	0	
0	2	0	
0	3	0	
0	4	0	
0	5	0	
0	6	0	
0	7	0	
0	8	0	
0	9	0	
0	10	0	
0	11	0	
0	12	0	
0	13	0	
0	14	0	
0	15	0	
0	16	0	
0	17	0	
0	18	0	
0	19	0	
0	20	0	
0	21	0	
0	22	0	
0	23	0	
0	24	0	
0	25	0	
0	26	0	
0	27	0	
0	28	0	
0	29	0	
0	30	0	
0	31	0	
0	32	0	
0	33	0	
0	34	0	
0	35	0	
0	36	0	
0	37	0	
0	38	0	
0	39	0	
0	40	0	
1	0	0	
1	1	0	
1	2	0	
1	3	0	
1	4	0	
1	5	0	
1	6	0	
1	7	0	
1	8	0	
1	9	0	
1	10	0	
1	11	0	
1	12	0	
1	13	0	
1	14	0	
1	15	0	
1	16	0	
1	17	0	
1	18	0	
1	19	0	
1	20	0	
1	21	0	
1	22	0	
1	23	0	
1	24	0	
1	25	0	
1	26	0	
1	27	0	
1	28	0	
1	29	0	
1	30	0	
1	31	0	
1	32	0	
1	33	0	
1	34	0	
1	35	0	
1	36	0	
1	37	0	
1	38	0	
1	39	0	
1	40	0	
2	0	0	
2	1	0	
2	2	0	
2	3	0	
2	4	0	
2	5	0	
2	6	0	
2	7	0	
2	8	0	
2	9	0	
2	10	0	
2	11	0	
2	12	0	
2	13	0	
2	14	0	
2	15	0	
2	16	0	
2	17	0	
2	18	0	
2	19	0	
2	20	0	
2	21	0	
2	22	0	
2	23	0	
2	24	0	
2	25	0	
2	26	0	
2	27	0	
2	28	0	
2	29	0	
2	30	0	
2	31	0	
2	32	0	
2	33	0	
2	34	0	
2	35	0	
2	36	0	
2	37	0	
2	38	0	
2	39	0	
2	40	0	
3	0	0	
3	1	0	
3	2	0	
3	3	0	
3	4	0	
3	5	0	
3	6	0	
3	7	0	
3	8	0	
3	9	0	
3	10	0	
3	11	0	
3	12	0	
3	13	0	
3	14	0	
3	15	0	
3	16	0	
3	17	0	
3	18	0	
3	19	0	
3	20	0	
3	21	0	
3	22	0	
3	23	0	
3	24	0	
3	25	0	
3	26	0	
3	27	0	
3	28	0	
3	29	0	
3	30	0	
3	31	0	
3	32	0	
3	33	0	
3	34	0	
3	35	0	
3	36	0	
3	37	0	
3	38	0	
3	39	0	
3	40	0	
4	0	0	
4	1	0	
4	2	0	
4	3	0	
4	4	0	
4	5	0	
4	6	0	
4	7	0	
4	8	0	
4	9	0	
4	10	0	
4	11	0	
4	12	0	
4	13	0	
4	14	0	
4	15	0	
4	16	0	
4	17	0	
4	18	0	
4	19	0	
4	20	0	
4	21	0	
4	22	0	
4	23	0	
4	24	0	
4	25	0	
4	26	0	
4	27	0	
4	28	0	
4	29	0	
4	30	0	
4	31	0	
4	32	0	
4	33	0	
4	34	0	
4	35	0	
4	36	0	
4	37	0	
4	38	0	
4	39	0	
4	40	0	
5	0	0	
5	1	0	
5	2	0	
5	3	0	
5	4	0	
5	5	0	
5	6	0	
5	7	0	
5	8	0	
5	9	0	
5	10	0	
5	11	0	
5	12	0	
5	13	0	
5	14	0	
5	15	0	
5	16	0	
5	17	0	
5	18	0	
5	19	0	
5	20	0	
5	21	0	
5	22	0	
5	23	0	
5	24	0	
5	25	0	
5	26	0	
5	27	0	
5	28	0	
5	29	0	
5	30	0	
5	31	0	
5	32	0	
5	33	0	
5	34	0	
5	35	0	
5	36	0	
5	37	0	
5	38	0	
5	39	0	
5	40	0	
6	0	0	
6	1	0	
6	2	0	
6	3	0	
6	4	0	
6	5	0	
6	6	0	
6	7	0	
6	8	0	
6	9	0	
6	10	0	
6	11	0	
6	12	0	
6	13	0	
6	14	0	
6	15	0	
6	16	0	
6	17	0	
6	18	0	
6	19	0	
6	20	0	
6	21	0	
6	22	0	
6	23	0	
6	24	0	
6	25	0	
6	26	0	
6	27	0	
6	28	0	
6	29	0	
6	30	0	
6	31	0	
6	32	0	
6	33	0	
6	34	0	
6	35	0	
6	36	0	
6	37	0	
6	38	0	
6	39	0	
6	40	0	
7	0	0	
7	1	0	
7	2	0	
7	3	0	
7	4	0	
7	5	0	
7	6	0	
7	7	0	
7	8	0	
7	9	0	
7	10	0	
7	11	0	
7	12	0	
7	13	0	
7	14	0	
7	15	0	
7	16	0	
7	17	0	
7	18	0	
7	19	0	
7	20	0	
7	21	0	
7	22	0	
7	23	0	
7	24	0	
7	25	0	
7	26	0	
7	27	0	
7	28	0	
7	29	0	
7	30	0	
7	31	0	
7	32	0	
7	33	0	
7	34	0	
7	35	0	
7	36	0	
7	37	0	
7	38	0	
7	39	0	
7	40	0	
8	0	0	
8	1	0	
8	2	0	
8	3	0	
8	4	0	
8	5	0	
8	6	0	
8	7	0	
8	8	0	
8	9	0	
8	10	0	
8	11	0	
8	12	0	
8	13	0	
8	14	0	
8	15	0	
8	16	0	
8	17	0	
8	18	0	
8	19	0	
8	20	0	
8	21	0	
8	22	0	
8	23	0	
8	24	0	
8	25	0	
8	26	0	
8	27	0	
8	28	0	
8	29	0	
8	30	0	
8	31	0	
8	32	0	
8	33	0	
8	34	0	
8	35	0	
8	36	0	
8	37	0	
8	38	0	
8	39	0	
8	40	0	
9	0	0	
9	1	0	
9	2	0	
9	3	0	
9	4	0	
9	5	0	
9	6	0	
9	7	0	
9	8	0	
9	9	0	
9	10	0	
9	11	0	
9	12	0	
9	13	0	
9	14	0	
9	15	0	
9	16	0	
9	17	0	
9	18	0	
9	19	0	
9	20	0	
9	21	0	
9	22	0	
9	23	0	
9	24	0	
9	25	0	
9	26	0	
9	27	0	
9	28	0	
9	29	0	
9	30	0	
9	31	0	
9	32	0	
9	33	0	
9	34	0	
9	35	0	
9	36	0	
9	37	0	
9	38	0	
9	39	0	
9	40	0	
10	0	0	
10	1	0	
10	2	0	
10	3	0	
10	4	0	
10	5	0	
10	6	0	
10	7	0	
10	8	0	
10	9	0	
10	10	0	
10	11	0	
10	12	0	
10	13	0	
10	14	0	
10	15	0	
10	16	0	
10	17	0	
10	18	0	
10	19	0	
10	20	0	
10	21	0	
10	22	0	
10	23	0	
10	24	0	
10	25	0	
10	26	0	
10	27	0	
10	28	0	
10	29	0	
10	30	0	
10	31	0	
10	32	0	
10	33	0	
10	34	0	
10	35	0	
10	36	0	
10	37	0	
10	38	0	
10	39	0	
10	40	0	
11	0	0	
11	1	0	
11	2	0	
11	3	0	
11	4	0	
11	5	0	
11	6	0	
11	7	0	
11	8	0	
11	9	0	
11	10	0	
11	11	0	
11	12	0	
11	13	0	
11	14	0	
11	15	0	
11	16	0	
11	17	0	
11	18	0	
11	19	0	
11	20	0	
11	21	0	
11	22	0	
11	23	0	
11	24	0	
11	25	0	
11	26	0	
11	27	0	
11	28	0	
11	29	0	
11	30	0	
11	31	0	
11	32	0	
11	33	0	
11	34	0	
11	35	0	
11	36	0	
11	37	0	
11	38	0	
11	39	0	
11	40	0	
12	0	0	
12	1	0	
12	2	0	
12	3	0	
12	4	0	
12	5	0	
12	6	0	
12	7	0	
12	8	0	
12	9	0	
12	10	0	
12	11	0	
12	12	0	
12	13	0	
12	14	0	
12	15	0	
12	16	0	
12	17	0	
12	18	0	
12	19	0	
12	20	0	
12	21	0	
12	22	0	
12	23	0	
12	24	0	
12	25	0	
12	26	0	
12	27	0	
12	28	0	
12	29	0	
12	30	0	
12	31	0	
12	32	0	
12	33	0	
12	34	0	
12	35	0	
12	36	0	
12	37	0	
12	38	0	
12	39	0	
12	40	0	
13	0	0	
13	1	0	
13	2	0	
13	3	0	
13	4	0	
13	5	0	
13	6	0	
13	7	0	
13	8	0	
13	9	0	
13	10	0	
13	11	0	
13	12	0	
13	13	0	
13	14	0	
13	15	0	
13	16	0	
13	17	0	
13	18	0	
13	19	0	
13	20	0	
13	21	0	
13	22	0	
13	23	0	
13	24	0	
13	25	0	
13	26	0	
13	27	0	
13	28	0	
13	29	0	
13	30	0	
13	31	0	
13	32	0	
13	33	0	
13	34	0	
13	35	0	
13	36	0	
13	37	0	
13	38	0	
13	39	0	
13	40	0	
14	0	0	
14	1	0	
14	2	0	
14	3	0	
14	4	0	
14	5	0	
14	6	0	
14	7	0	
14	8	0	
14	9	0	
14	10	0	
14	11	0	
14	12	0	
14	13	0	
14	14	0	
14	15	0	
14	16	0	
14	17	0	
14	18	0	
14	19	0	
14	20	0	
14	21	0	
14	22	0	
14	23	0	
14	24	0	
14	25	0	
14	26	0	
14	27	0	
14	28	0	
14	29	0	
14	30	0	
14	31	0	
14	32	0	
14	33	0	
14	34	0	
14	35	0	
14	36	0	
14	37	0	
14	38	0	
14	39	0	
14	40	0	
15	0	0	
15	1	0	
15	2	0	
15	3	0	
15	4	0	
15	5	0	
15	6	0	
15	7	0	
15	8	0	
15	9	0	
15	10	0	
15	11	0	
15	12	0	
15	13	0	
15	14	0	
15	15	0	
15	16	0	
15	17	0	
15	18	0	
15	19	0	
15	20	0	
15	21	0	
15	22	0	
15	23	0	
15	24	0	
15	25	0	
15	26	0	
15	27	0	
15	28	0	
15	29	0	
15	30	0	
15	31	0	
15	32	0	
15	33	0	
15	34	0	
15	35	0	
15	36	0	
15	37	0	
15	38	0	
15	39	0	
15	40	0	
16	0	0	
16	1	0	
16	2	0	
16	3	0	
16	4	0	
16	5	0	
16	6	0	
16	7	0	
16	8	0	
16	9	0	
16	10	0	
16	11	0	
16	12	0	
16	13	0	
16	14	0	
16	15	0	
16	16	0	
16	17	0	
16	18	0	
16	19	0	
16	20	0	
16	21	0	
16	22	0	
16	23	0	
16	24	0	
16	25	0	
16	26	0	
16	27	0	
16	28	0	
16	29	0	
16	30	0	
16	31	0	
16	32	0	
16	33	0	
16	34	0	
16	35	0	
16	36	0	
16	37	0	
16	38	0	
16	39	0	
16	40	0	
17	0	0	
17	1	0	
17	2	0	
17	3	0	
17	4	0	
17	5	0	
17	6	0	
17	7	0	
17	8	0	
17	9	0	
17	10	0	
17	11	0	
17	12	0	
17	13	0	
17	14	0	
17	15	0	
17	16	0	
17	17	0	
17	18	0	
17	19	0	
17	20	0	
17	21	0	
17	22	0	
17	23	0	
17	24	0	
17	25	0	
17	26	0	
17	27	0	
17	28	0	
17	29	0	
17	30	0	
17	31	0	
17	32	0	
17	33	0	
17	34	0	
17	35	0	
17	36	0	
17	37	0	
17	38	0	
17	39	0	
17	40	0	
18	0	0	
18	1	0	
18	2	0	
18	3	0	
18	4	0	
18	5	0	
18	6	0	
18	7	0	
18	8	0	
18	9	0	
18	10	0	
18	11	0	
18	12	0	
18	13	0	
18	14	0	
18	15	0	
18	16	0	
18	17	0	
18	18	0	
18	19	0	
18	20	0	
18	21	0	
18	22	0	
18	23	0	
18	24	0	
18	25	0	
18	26	0	
18	27	0	
18	28	0	
18	29	0	
18	30	0	
18	31	0	
18	32	0	
18	33	0	
18	34	0	
18	35	0	
18	36	0	
18	37	0	
18	38	0	
18	39	0	
18	40	0	
19	0	0	
19	1	0	
19	2	0	
19	3	0	
19	4	0	
19	5	0	
19	6	0	
19	7	0	
19	8	0	
19	9	0	
19	10	0	
19	11	0	
19	12	0	
19	13	0	
19	14	0	
19	15	0	
19	16	0	
19	17	0	
19	18	0	
19	19	0	
19	20	0	
19	21	0	
19	22	0	
19	23	0	
19	24	0	
19	25	0	
19	26	0	
19	27	0	
19	28	0	
19	29	0	
19	30	0	
19	31	0	
19	32	0	
19	33	0	
19	34	0	
19	35	0	
19	36	0	
19	37	0	
19	38	0	
19	39	0	
19	40	0	
20	0	0	
20	1	0	
20	2	0	
20	3	0	
20	4	0	
20	5	0	
20	6	0	
20	7	0	
20	8	0	
20	9	0	
20	10	0	
20	11	0	
20	12	0	
20	13	0	
20	14	0	
20	15	0	
20	16	0	
20	17	0	
20	18	0	
20	19	0	
20	20	0	
20	21	0	
20	22	0	
20	23	0	
20	24	0	
20	25	0	
20	26	0	
20	27	0	
20	28	0	
20	29	0	
20	30	0	
20	31	0	
20	32	0	
20	33	0	
20	34	0	
20	35	0	
20	36	0	
20	37	0	
20	38	0	
20	39	0	
20	40	0	
21	0	0	
21	1	0	
21	2	0	
21	3	0	
21	4	0	
21	5	0	
21	6	0	
21	7	0	
21	8	0	
21	9	0	
21	10	0	
21	11	0	
21	12	0	
21	13	0	
21	14	0	
21	15	0	
21	16	0	
21	17	0	
21	18	0	
21	19	0	
21	20	0	
21	21	0	
21	22	0	
21	23	0	
21	24	0	
21	25	0	
21	26	0	
21	27	0	
21	28	0	
21	29	0	
21	30	0	
21	31	0	
21	32	0	
21	33	0	
21	34	0	
21	35	0	
21	36	0	
21	37	0	
21	38	0	
21	39	0	
21	40	0	
22	0	0	
22	1	0	
22	2	0	
22	3	0	
22	4	0	
22	5	0	
22	6	0	
22	7	0	
22	8	0	
22	9	0	
22	10	0	
22	11	0	
22	12	0	
22	13	0	
22	14	0	
22	15	0	
22	16	0	
22	17	0	
22	18	0	
22	19	0	
22	20	0	
22	21	0	
22	22	0	
22	23	0	
22	24	0	
22	25	0	
22	26	0	
22	27	0	
22	28	0	
22	29	0	
22	30	0	
22	31	0	
22	32	0	
22	33	0	
22	34	0	
22	35	0	
22	36	0	
22	37	0	
22	38	0	
22	39	0	
22	40	0	
23	0	0	
23	1	0	
23	2	0	
23	3	0	
23	4	0	
23	5	0	
23	6	0	
23	7	0	
23	8	0	
23	9	0	
23	10	0	
23	11	0	
23	12	0	
23	13	0	
23	14	0	
23	15	0	
23	16	0	
23	17	0	
23	18	0	
23	19	0	
23	20	0	
23	21	0	
23	22	0	
23	23	0	
23	24	0	
23	25	0	
23	26	0	
23	27	0	
23	28	0	
23	29	0	
23	30	0	
23	31	0	
23	32	0	
23	33	0	
23	34	0	
23	35	0	
23	36	0	
23	37	0	
23	38	0	
23	39	0	
23	40	0	
24	0	0	
24	1	0	
24	2	0	
24	3	0	
24	4	0	
24	5	0	
24	6	0	
24	7	0	
24	8	0	
24	9	0	
24	10	0	
24	11	0	
24	12	0	
24	13	0	
24	14	0	
24	15	0	
24	16	0	
24	17	0	
24	18	0	
24	19	0	
24	20	0	
24	21	0	
24	22	0	
24	23	0	
24	24	0	
24	25	0	
24	26	0	
24	27	0	
24	28	0	
24	29	0	
24	30	0	
24	31	0	
24	32	0	
24	33	0	
24	34	0	
24	35	0	
24	36	0	
24	37	0	
24	38	0	
24	39	0	
24	40	0	
25	0	0	
25	1	0	
25	2	0	
25	3	0	
25	4	0	
25	5	0	
25	6	0	
25	7	0	
25	8	0	
25	9	0	
25	10	0	
25	11	0	
25	12	0	
25	13	0	
25	14	0	
25	15	0	
25	16	0	
25	17	0	
25	18	0	
25	19	0	
25	20	0	
25	21	0	
25	22	0	
25	23	0	
25	24	0	
25	25	0	
25	26	0	
25	27	0	
25	28	0	
25	29	0	
25	30	0	
25	31	0	
25	32	0	
25	33	0	
25	34	0	
25	35	0	
25	36	0	
25	37	0	
25	38	0	
25	39	0	
25	40	0	
26	0	0	
26	1	0	
26	2	0	
26	3	0	
26	4	0	
26	5	0	
26	6	0	
26	7	0	
26	8	0	
26	9	0	
26	10	0	
26	11	0	
26	12	0	
26	13	0	
26	14	0	
26	15	0	
26	16	0	
26	17	0	
26	18	0	
26	19	0	
26	20	0	
26	21	0	
26	22	0	
26	23	0	
26	24	0	
26	25	0	
26	26	0	
26	27	0	
26	28	0	
26	29	0	
26	30	0	
26	31	0	
26	32	0	
26	33	0	
26	34	0	
26	35	0	
26	36	0	
26	37	0	
26	38	0	
26	39	0	
26	40	0	
27	0	0	
27	1	0	
27	2	0	
27	3	0	
27	4	0	
27	5	0	
27	6	0	
27	7	0	
27	8	0	
27	9	0	
27	10	0	
27	11	0	
27	12	0	
27	13	0	
27	14	0	
27	15	0	
27	16	0	
27	17	0	
27	18	0	
27	19	0	
27	20	0	
27	21	0	
27	22	0	
27	23	0	
27	24	0	
27	25	0	
27	26	0	
27	27	0	
27	28	0	
27	29	0	
27	30	0	
27	31	0	
27	32	0	
27	33	0	
27	34	0	
27	35	0	
27	36	0	
27	37	0	
27	38	0	
27	39	0	
27	40	0	
28	0	0	
28	1	0	
28	2	0	
28	3	0	
28	4	0	
28	5	0	
28	6	0	
28	7	0	
28	8	0	
28	9	0	
28	10	0	
28	11	0	
28	12	0	
28	13	0	
28	14	0	
28	15	0	
28	16	0	
28	17	0	
28	18	0	
28	19	0	
28	20	0	
28	21	0	
28	22	0	
28	23	0	
28	24	0	
28	25	0	
28	26	0	
28	27	0	
28	28	0	
28	29	0	
28	30	0	
[...]
POINT_DATA	7401
VECTORS d float
-8.71018e-017	-4.8037e-017	0	
-3.1674e-017	-1.32145e-017	0	
-2.45224e-017	-7.45539e-018	0	
-2.15415e-017	-6.89728e-018	0	
-1.7543e-017	-2.65853e-018	0	
-2.78806e-018	4.41591e-018	0	
-2.8746e-017	7.26805e-019	0	
-1.43856e-017	-4.89745e-018	0	
-1.13121e-017	-5.51846e-018	0	
-9.02007e-018	-6.06603e-018	0	
-7.33571e-018	-6.29299e-018	0	
-5.96634e-018	-6.63541e-018	0	
-4.88553e-018	-6.87997e-018	0	
-3.99164e-018	-7.09405e-018	0	
-3.23304e-018	-7.26732e-018	0	
-2.57139e-018	-7.40769e-018	0	
-1.98133e-018	-7.51938e-018	0	
-1.44383e-018	-7.60428e-018	0	
-9.43147e-019	-7.66398e-018	0	
-4.65885e-019	-7.69942e-018	0	
-3.0447e-025	-7.71117e-018	0	
4.65884e-019	-7.69942e-018	0	
9.43147e-019	-7.66398e-018	0	
1.44383e-018	-7.60428e-018	0	
1.98133e-018	-7.51938e-018	0	
2.57139e-018	-7.40769e-018	0	
3.23303e-018	-7.26732e-018	0	
3.99163e-018	-7.09405e-018	0	
4.88553e-018	-6.87997e-018	0	
5.96634e-018	-6.63541e-018	0	
7.33571e-018	-6.29299e-018	0	
9.02007e-018	-6.06603e-018	0	
1.13121e-017	-5.51846e-018	0	
1.43856e-017	-4.89744e-018	0	
2.8746e-017	7.26805e-019	0	
2.78806e-018	4.41591e-018	0	
1.7543e-017	-2.65853e-018	0	
2.15415e-017	-6.89728e-018	0	
2.45224e-017	-7.45538e-018	0	
3.1674e-017	-1.32145e-017	0	
8.71018e-017	-4.8037e-017	0	
-2.73459e-006	-2.45131e-006	0	
-1.60903e-006	-1.75993e-006	0	
-1.17759e-006	-1.3866e-006	0	
-9.83983e-007	-1.22516e-006	0	
-8.73135e-007	-1.14936e-006	0	
-8.93843e-007	-1.23375e-006	0	
-1.43491e-006	-1.52832e-006	0	
-7.08567e-007	-1.08465e-006	0	
-4.94122e-007	-1.04206e-006	0	
-3.93647e-007	-1.05687e-006	0	
-3.15473e-007	-1.0742e-006	0	
-2.54173e-007	-1.10298e-006	0	
-2.07288e-007	-1.13018e-006	0	
-1.69134e-007	-1.15408e-006	0	
-1.36774e-007	-1.17451e-006	0	
-1.08617e-007	-1.19158e-006	0	
-8.35826e-008	-1.20544e-006	0	
-6.08454e-008	-1.21614e-006	0	
-3.97179e-008	-1.22374e-006	0	
-1.96113e-008	-1.22827e-006	0	
-1.34909e-014	-1.22978e-006	0	
1.96113e-008	-1.22827e-006	0	
3.97178e-008	-1.22374e-006	0	
6.08454e-008	-1.21614e-006	0	
8.35826e-008	-1.20544e-006	0	
1.08617e-007	-1.19158e-006	0	
1.36774e-007	-1.17451e-006	0	
1.69134e-007	-1.15408e-006	0	
2.07288e-007	-1.13018e-006	0	
2.54173e-007	-1.10298e-006	0	
3.15473e-007	-1.0742e-006	0	
3.93647e-007	-1.05687e-006	0	
4.94122e-007	-1.04206e-006	0	
7.08567e-007	-1.08465e-006	0	
1.43491e-006	-1.52832e-006	0	
8.93843e-007	-1.23375e-006	0	
8.73135e-007	-1.14936e-006	0	
9.83983e-007	-1.22516e-006	0	
1.17759e-006	-1.3866e-006	0	
1.60903e-006	-1.75993e-006	0	
2.73459e-006	-2.45131e-006	0	
-4.51483e-006	-4.16898e-006	0	
-3.21423e-006	-3.49023e-006	0	
-2.47548e-006	-2.98344e-006	0	
-2.03467e-006	-2.66196e-006	0	
-1.76925e-006	-2.44192e-006	0	
-1.71263e-006	-2.28898e-006	0	
-1.69816e-006	-2.35739e-006	0	
-1.35715e-006	-2.47694e-006	0	
-1.02427e-006	-2.32646e-006	0	
-7.86967e-007	-2.28345e-006	0	
-6.14029e-007	-2.30778e-006	0	
-4.93211e-007	-2.34001e-006	0	
-4.00784e-007	-2.3734e-006	0	
-3.26125e-007	-2.40421e-006	0	
-2.62872e-007	-2.43251e-006	0	
-2.08167e-007	-2.45744e-006	0	
-1.59849e-007	-2.47832e-006	0	
-1.16183e-007	-2.49478e-006	0	
-7.57609e-008	-2.50662e-006	0	
-3.73855e-008	-2.51374e-006	0	
-2.68287e-014	-2.51612e-006	0	
3.73854e-008	-2.51374e-006	0	
7.57608e-008	-2.50662e-006	0	
1.16183e-007	-2.49478e-006	0	
1.59849e-007	-2.47832e-006	0	
2.08167e-007	-2.45744e-006	0	
2.62872e-007	-2.43251e-006	0	
3.26125e-007	-2.40421e-006	0	
4.00784e-007	-2.3734e-006	0	
4.93211e-007	-2.34001e-006	0	
6.14029e-007	-2.30778e-006	0	
7.86967e-007	-2.28345e-006	0	
1.02427e-006	-2.32646e-006	0	
1.35715e-006	-2.47694e-006	0	
1.69816e-006	-2.35739e-006	0	
1.71263e-006	-2.28898e-006	0	
1.76925e-006	-2.44192e-006	0	
2.03467e-006	-2.66196e-006	0	
2.47548e-006	-2.98344e-006	0	
3.21423e-006	-3.49023e-006	0	
4.51483e-006	-4.16898e-006	0	
-6.04383e-006	-5.73453e-006	0	
-4.72142e-006	-5.12011e-006	0	
-3.77677e-006	-4.59006e-006	0	
-3.12783e-006	-4.18751e-006	0	
-2.69113e-006	-3.89884e-006	0	
-2.42039e-006	-3.70577e-006	0	
-2.13167e-006	-3.57559e-006	0	
-1.35938e-006	-3.49466e-006	0	
-1.50615e-006	-3.61613e-006	0	
-1.15565e-006	-3.65535e-006	0	
-8.98792e-007	-3.68995e-006	0	
-7.27235e-007	-3.70324e-006	0	
-5.91544e-007	-3.72236e-006	0	
-4.78731e-007	-3.74673e-006	0	
-3.84071e-007	-3.77297e-006	0	
-3.03022e-007	-3.79807e-006	0	
-2.32071e-007	-3.82004e-006	0	
-1.6836e-007	-3.83785e-006	0	
-1.09645e-007	-3.85089e-006	0	
-5.40672e-008	-3.85882e-006	0	
-4.0002e-014	-3.86149e-006	0	
5.40671e-008	-3.85882e-006	0	
1.09645e-007	-3.85089e-006	0	
1.6836e-007	-3.83785e-006	0	
2.32071e-007	-3.82004e-006	0	
3.03022e-007	-3.79807e-006	0	
3.84071e-007	-3.77297e-006	0	
4.78731e-007	-3.74673e-006	0	
5.91544e-007	-3.72236e-006	0	
7.27235e-007	-3.70324e-006	0	
8.98792e-007	-3.68995e-006	0	
1.15565e-006	-3.65535e-006	0	
1.50615e-006	-3.61613e-006	0	
1.35938e-006	-3.49466e-006	0	
2.13167e-006	-3.57559e-006	0	
2.42039e-006	-3.70577e-006	0	
2.69113e-006	-3.89884e-006	0	
3.12783e-006	-4.18751e-006	0	
3.77677e-006	-4.59006e-006	0	
4.72142e-006	-5.12011e-006	0	
6.04383e-006	-5.73453e-006	0	
-7.42917e-006	-7.23737e-006	0	
-6.07444e-006	-6.67921e-006	0	
-5.00669e-006	-6.1754e-006	0	
-4.19509e-006	-5.76787e-006	0	
-3.58664e-006	-5.47343e-006	0	
-3.11763e-006	-5.29411e-006	0	
-2.67597e-006	-5.25468e-006	0	
-2.14467e-006	-5.38776e-006	0	
-2.11015e-006	-5.65828e-006	0	
-1.51619e-006	-5.25382e-006	0	
-1.19543e-006	-5.19107e-006	0	
-9.71683e-007	-5.16915e-006	0	
-7.8625e-007	-5.15886e-006	0	
-6.31126e-007	-5.17172e-006	0	
-5.0394e-007	-5.19033e-006	0	
-3.96348e-007	-5.21025e-006	0	
-3.02801e-007	-5.22885e-006	0	
-2.19279e-007	-5.24452e-006	0	
-1.42634e-007	-5.25629e-006	0	
-7.02863e-008	-5.26355e-006	0	
-5.29635e-014	-5.266e-006	0	
7.02862e-008	-5.26355e-006	0	
1.42634e-007	-5.25629e-006	0	
2.19279e-007	-5.24452e-006	0	
3.02801e-007	-5.22885e-006	0	
3.96348e-007	-5.21025e-006	0	
5.0394e-007	-5.19033e-006	0	
6.31126e-007	-5.17172e-006	0	
7.8625e-007	-5.15886e-006	0	
9.71682e-007	-5.16915e-006	0	
1.19543e-006	-5.19107e-006	0	
1.51619e-006	-5.25382e-006	0	
2.11015e-006	-5.65828e-006	0	
2.14467e-006	-5.38776e-006	0	
2.67597e-006	-5.25468e-006	0	
3.11763e-006	-5.29411e-006	0	
3.58664e-006	-5.47343e-006	0	
4.19509e-006	-5.76787e-006	0	
5.00669e-006	-6.1754e-006	0	
6.07444e-006	-6.67921e-006	0	
7.42917e-006	-7.23737e-006	0	
-8.69781e-006	-8.73073e-006	0	
-7.31419e-006	-8.21518e-006	0	
-6.15066e-006	-7.74627e-006	0	
-5.1994e-006	-7.36121e-006	0	
-4.43209e-006	-7.07956e-006	0	
-3.79946e-006	-6.90748e-006	0	
-3.23662e-006	-6.81132e-006	0	
-2.77561e-006	-6.7416e-006	0	
-2.35014e-006	-6.81691e-006	0	
-1.76235e-006	-6.94099e-006	0	
-1.53317e-006	-6.7458e-006	0	
-1.22857e-006	-6.67358e-006	0	
-9.78502e-007	-6.6648e-006	0	
-7.83231e-007	-6.66751e-006	0	
-6.23851e-007	-6.67696e-006	0	
-4.89932e-007	-6.6883e-006	0	
-3.73647e-007	-6.70052e-006	0	
-2.70219e-007	-6.71168e-006	0	
-1.75626e-007	-6.72039e-006	0	
-8.65061e-008	-6.72588e-006	0	
-6.56492e-014	-6.72774e-006	0	
8.65059e-008	-6.72588e-006	0	
1.75625e-007	-6.72039e-006	0	
2.70219e-007	-6.71168e-006	0	
3.73647e-007	-6.70052e-006	0	
4.89932e-007	-6.6883e-006	0	
6.23851e-007	-6.67696e-006	0	
7.83231e-007	-6.66751e-006	0	
9.78502e-007	-6.6648e-006	0	
1.22857e-006	-6.67358e-006	0	
1.53317e-006	-6.7458e-006	0	
1.76235e-006	-6.94099e-006	0	
2.35014e-006	-6.81691e-006	0	
2.77561e-006	-6.7416e-006	0	
3.23662e-006	-6.81132e-006	0	
3.79946e-006	-6.90748e-006	0	
4.43209e-006	-7.07956e-006	0	
5.1994e-006	-7.36121e-006	0	
6.15066e-006	-7.74627e-006	0	
7.31419e-006	-8.21518e-006	0	
8.69781e-006	-8.73073e-006	0	
-9.8811e-006	-1.02229e-005	0	
-8.46305e-006	-9.74016e-006	0	
-7.21156e-006	-9.30321e-006	0	
-6.13559e-006	-8.94488e-006	0	
-5.23033e-006	-8.68215e-006	0	
-4.47617e-006	-8.50889e-006	0	
-3.84035e-006	-8.39292e-006	0	
-3.30141e-006	-8.30375e-006	0	
-2.73519e-006	-8.21715e-006	0	
-1.77431e-006	-8.14513e-006	0	
-1.83801e-006	-8.20323e-006	0	
-1.45952e-006	-8.22595e-006	0	
-1.15506e-006	-8.24105e-006	0	
-9.32296e-007	-8.22939e-006	0	
-7.45152e-007	-8.22371e-006	0	
-5.8437e-007	-8.22474e-006	0	
-4.45238e-007	-8.22923e-006	0	
-3.2182e-007	-8.23459e-006	0	
-2.09142e-007	-8.23913e-006	0	
-1.03019e-007	-8.24209e-006	0	
-7.79988e-014	-8.24312e-006	0	
1.03018e-007	-8.24209e-006	0	
2.09142e-007	-8.23913e-006	0	
3.2182e-007	-8.23459e-006	0	
4.45238e-007	-8.22923e-006	0	
5.8437e-007	-8.22474e-006	0	
7.45151e-007	-8.22371e-006	0	
9.32295e-007	-8.22939e-006	0	
1.15506e-006	-8.24105e-006	0	
1.45952e-006	-8.22595e-006	0	
1.83801e-006	-8.20323e-006	0	
1.77431e-006	-8.14513e-006	0	
2.73519e-006	-8.21715e-006	0	
3.30141e-006	-8.30375e-006	0	
3.84035e-006	-8.39292e-006	0	
4.47617e-006	-8.50889e-006	0	
5.23033e-006	-8.68215e-006	0	
6.13559e-006	-8.94488e-006	0	
7.21156e-006	-9.30321e-006	0	
8.46305e-006	-9.74016e-006	0	
9.8811e-006	-1.02229e-005	0	
-1.10041e-005	-1.17242e-005	0	
-9.54337e-006	-1.1264e-005	0	
-8.20287e-006	-1.08504e-005	0	
-7.00624e-006	-1.05138e-005	0	
-5.97151e-006	-1.02728e-005	0	
-5.11533e-006	-1.01222e-005	0	
-4.42216e-006	-1.00269e-005	0	
-3.81438e-006	-9.95883e-006	0	
-3.19302e-006	-9.95388e-006	0	
-2.4792e-006	-1.00716e-005	0	
-2.1982e-006	-1.03032e-005	0	
-1.66631e-006	-9.93595e-006	0	
-1.33903e-006	-9.87557e-006	0	
-1.0865e-006	-9.84425e-006	0	
-8.67767e-007	-9.81796e-006	0	
-6.78566e-007	-9.81126e-006	0	
-5.17143e-007	-9.80851e-006	0	
-3.74226e-007	-9.80752e-006	0	
-2.43425e-007	-9.80726e-006	0	
-1.19978e-007	-9.80726e-006	0	
-8.99763e-014	-9.80729e-006	0	
1.19978e-007	-9.80726e-006	0	
2.43425e-007	-9.80726e-006	0	
3.74225e-007	-9.80752e-006	0	
5.17143e-007	-9.80851e-006	0	
6.78566e-007	-9.81126e-006	0	
8.67767e-007	-9.81796e-006	0	
1.0865e-006	-9.84425e-006	0	
1.33903e-006	-9.87557e-006	0	
1.66631e-006	-9.93595e-006	0	
2.1982e-006	-1.03032e-005	0	
2.4792e-006	-1.00716e-005	0	
3.19302e-006	-9.95388e-006	0	
3.81438e-006	-9.95883e-006	0	
4.42216e-006	-1.00269e-005	0	
5.11533e-006	-1.01222e-005	0	
5.97151e-006	-1.02728e-005	0	
7.00624e-006	-1.05138e-005	0	
8.20287e-006	-1.08504e-005	0	
9.54337e-006	-1.1264e-005	0	
1.10041e-005	-1.17242e-005	0	
-1.20918e-005	-1.32492e-005	0	
-1.05754e-005	-1.28019e-005	0	
-9.14176e-006	-1.24001e-005	0	
-7.81896e-006	-1.20691e-005	0	
-6.64361e-006	-1.18427e-005	0	
-5.68525e-006	-1.17327e-005	0	
-4.95763e-006	-1.16742e-005	0	
-4.32859e-006	-1.1608e-005	0	
-3.66268e-006	-1.15589e-005	0	
-3.03579e-006	-1.15075e-005	0	
-2.39402e-006	-1.15659e-005	0	
-1.7118e-006	-1.17057e-005	0	
-1.55336e-006	-1.15241e-005	0	
-1.24324e-006	-1.14637e-005	0	
-9.82153e-007	-1.14515e-005	0	
-7.70184e-007	-1.14409e-005	0	
-5.88725e-007	-1.14323e-005	0	
-4.27453e-007	-1.14243e-005	0	
-2.78576e-007	-1.14188e-005	0	
-1.37444e-007	-1.14156e-005	0	
-1.01587e-013	-1.14145e-005	0	
1.37444e-007	-1.14156e-005	0	
2.78576e-007	-1.14188e-005	0	
4.27452e-007	-1.14243e-005	0	
5.88725e-007	-1.14323e-005	0	
7.70184e-007	-1.14409e-005	0	
9.82153e-007	-1.14515e-005	0	
1.24324e-006	-1.14637e-005	0	
1.55336e-006	-1.15241e-005	0	
1.7118e-006	-1.17057e-005	0	
2.39402e-006	-1.15659e-005	0	
3.03579e-006	-1.15075e-005	0	
3.66268e-006	-1.15589e-005	0	
4.32859e-006	-1.1608e-005	0	
4.95763e-006	-1.16742e-005	0	
5.68525e-006	-1.17327e-005	0	
6.64361e-006	-1.18427e-005	0	
7.81896e-006	-1.20691e-005	0	
9.14176e-006	-1.24001e-005	0	
1.05754e-005	-1.28019e-005	0	
1.20918e-005	-1.32492e-005	0	
-1.31636e-005	-1.4821e-005	0	
-1.15764e-005	-1.43801e-005	0	
-1.00481e-005	-1.39788e-005	0	
-8.59792e-006	-1.36316e-005	0	
-7.25828e-006	-1.33806e-005	0	
-6.09875e-006	-1.32703e-005	0	
-5.46621e-006	-1.32891e-005	0	
-4.86404e-006	-1.32212e-005	0	
-4.16798e-006	-1.31744e-005	0	
-3.49555e-006	-1.31394e-005	0	
-2.77731e-006	-1.30965e-005	0	
-1.72941e-006	-1.30414e-005	0	
-1.73233e-006	-1.30771e-005	0	
-1.37047e-006	-1.31149e-005	0	
-1.07612e-006	-1.31346e-005	0	
-8.57052e-007	-1.31141e-005	0	
-6.61375e-007	-1.30935e-005	0	
-4.81623e-007	-1.3078e-005	0	
-3.14585e-007	-1.30672e-005	0	
-1.55407e-007	-1.30609e-005	0	
-1.12895e-013	-1.30587e-005	0	
1.55407e-007	-1.30609e-005	0	
3.14584e-007	-1.30672e-005	0	
4.81623e-007	-1.3078e-005	0	
6.61375e-007	-1.30935e-005	0	
8.57052e-007	-1.31141e-005	0	
1.07612e-006	-1.31346e-005	0	
1.37047e-006	-1.31149e-005	0	
1.73233e-006	-1.30771e-005	0	
1.72941e-006	-1.30414e-005	0	
2.77731e-006	-1.30965e-005	0	
3.49555e-006	-1.31394e-005	0	
4.16798e-006	-1.31744e-005	0	
4.86404e-006	-1.32212e-005	0	
5.46621e-006	-1.32891e-005	0	
6.09875e-006	-1.32703e-005	0	
7.25828e-006	-1.33806e-005	0	
8.59792e-006	-1.36316e-005	0	
1.00481e-005	-1.39788e-005	0	
1.15764e-005	-1.43801e-005	0	
1.31636e-005	-1.4821e-005	0	
-1.42275e-005	-1.64671e-005	0	
-1.25567e-005	-1.60314e-005	0	
-1.0938e-005	-1.5628e-005	0	
-9.37535e-006	-1.52622e-005	0	
-7.86551e-006	-1.49382e-005	0	
-6.36189e-006	-1.46606e-005	0	
-6.09308e-006	-1.47376e-005	0	
-5.37396e-006	-1.48682e-005	0	
-4.65288e-006	-1.48664e-005	0	
-3.93638e-006	-1.48497e-005	0	
-3.19282e-006	-1.48811e-005	0	
-2.36566e-006	-1.50166e-005	0	
-1.9191e-006	-1.52424e-005	0	
-1.46466e-006	-1.49088e-005	0	
-1.18079e-006	-1.48569e-005	0	
-9.50385e-007	-1.482e-005	0	
-7.36191e-007	-1.47812e-005	0	
-5.36098e-007	-1.4761e-005	0	
-3.51065e-007	-1.47461e-005	0	
-1.73837e-007	-1.47368e-005	0	
-1.2403e-013	-1.47336e-005	0	
1.73836e-007	-1.47368e-005	0	
3.51065e-007	-1.47461e-005	0	
5.36098e-007	-1.4761e-005	0	
7.3619e-007	-1.47812e-005	0	
9.50385e-007	-1.482e-005	0	
1.18079e-006	-1.48569e-005	0	
1.46466e-006	-1.49088e-005	0	
1.9191e-006	-1.52424e-005	0	
2.36566e-006	-1.50166e-005	0	
3.19282e-006	-1.48811e-005	0	
3.93638e-006	-1.48497e-005	0	
4.65288e-006	-1.48664e-005	0	
5.37396e-006	-1.48682e-005	0	
6.09308e-006	-1.47376e-005	0	
6.36189e-006	-1.46606e-005	0	
7.86551e-006	-1.49382e-005	0	
9.37535e-006	-1.52622e-005	0	
1.0938e-005	-1.5628e-005	0	
1.25567e-005	-1.60314e-005	0	
1.42275e-005	-1.64671e-005	0	
-1.52777e-005	-1.82081e-005	0	
-1.35173e-005	-1.7781e-005	0	
-1.18136e-005	-1.7384e-005	0	
-1.01531e-005	-1.70165e-005	0	
-8.50405e-006	-1.66968e-005	0	
-6.77154e-006	-1.64454e-005	0	
-6.94879e-006	-1.68365e-005	0	
-5.89794e-006	-1.67272e-005	0	
-5.14654e-006	-1.66065e-005	0	
-4.37696e-006	-1.65817e-005	0	
-3.59974e-006	-1.65736e-005	0	
-2.86689e-006	-1.65492e-005	0	
-2.11211e-006	-1.66164e-005	0	
-1.36152e-006	-1.6764e-005	0	
-1.32091e-006	-1.65743e-005	0	
-1.04942e-006	-1.651e-005	0	
-8.04791e-007	-1.6489e-005	0	
-5.89613e-007	-1.64675e-005	0	
-3.87902e-007	-1.64499e-005	0	
-1.92856e-007	-1.64373e-005	0	
-1.35185e-013	-1.6433e-005	0	
1.92856e-007	-1.64373e-005	0	
3.87902e-007	-1.64499e-005	0	
5.89613e-007	-1.64675e-005	0	
8.04791e-007	-1.6489e-005	0	
1.04942e-006	-1.651e-005	0	
1.32091e-006	-1.65743e-005	0	
1.36152e-006	-1.6764e-005	0	
2.11211e-006	-1.66164e-005	0	
2.86689e-006	-1.65492e-005	0	
3.59974e-006	-1.65736e-005	0	
4.37696e-006	-1.65817e-005	0	
5.14654e-006	-1.66065e-005	0	
5.89794e-006	-1.67272e-005	0	
6.94879e-006	-1.68365e-005	0	
6.77154e-006	-1.64454e-005	0	
8.50405e-006	-1.66968e-005	0	
1.01531e-005	-1.70165e-005	0	
1.18136e-005	-1.7384e-005	0	
1.35173e-005	-1.7781e-005	0	
1.52777e-005	-1.82081e-005	0	
-1.63011e-005	-2.00491e-005	0	
-1.44542e-005	-1.96351e-005	0	
-1.26705e-005	-1.92501e-005	0	
-1.09188e-005	-1.88954e-005	0	
-9.15444e-006	-1.85821e-005	0	
-7.30782e-006	-1.83182e-005	0	
-6.97951e-006	-1.81423e-005	0	
-6.49785e-006	-1.83e-005	0	
-5.64362e-006	-1.83487e-005	0	
-4.83473e-006	-1.83206e-005	0	
-4.04678e-006	-1.82848e-005	0	
-3.28717e-006	-1.82581e-005	0	
-2.48942e-006	-1.82225e-005	0	
-1.38511e-006	-1.81677e-005	0	
-1.43919e-006	-1.8182e-005	0	
-1.12454e-006	-1.82156e-005	0	
-8.56583e-007	-1.82294e-005	0	
-6.41462e-007	-1.81993e-005	0	
-4.27207e-007	-1.81723e-005	0	
-2.1266e-007	-1.81565e-005	0	
-1.46587e-013	-1.81513e-005	0	
2.1266e-007	-1.81565e-005	0	
4.27207e-007	-1.81723e-005	0	
6.41462e-007	-1.81993e-005	0	
8.56583e-007	-1.82294e-005	0	
1.12454e-006	-1.82156e-005	0	
1.43919e-006	-1.8182e-005	0	
1.38511e-006	-1.81677e-005	0	
2.48942e-006	-1.82225e-005	0	
3.28717e-006	-1.82581e-005	0	
4.04678e-006	-1.82848e-005	0	
4.83473e-006	-1.83206e-005	0	
5.64362e-006	-1.83487e-005	0	
6.49785e-006	-1.83e-005	0	
6.97951e-006	-1.81423e-005	0	
7.30782e-006	-1.83182e-005	0	
9.15444e-006	-1.85821e-005	0	
1.09188e-005	-1.88954e-005	0	
1.26705e-005	-1.92501e-005	0	
1.44542e-005	-1.96351e-005	0	
1.63011e-005	-2.00491e-005	0	
-1.72858e-005	-2.19802e-005	0	
-1.53636e-005	-2.15819e-005	0	
-1.35094e-005	-2.12093e-005	0	
-1.16808e-005	-2.08632e-005	0	
-9.83017e-006	-2.05484e-005	0	
-7.90342e-006	-2.02667e-005	0	
-7.37388e-006	-2.02342e-005	0	
-7.24332e-006	-2.02976e-005	0	
-6.14086e-006	-2.01931e-005	0	
-5.31286e-006	-2.00704e-005	0	
-4.49269e-006	-2.0028e-005	0	
-3.69455e-006	-2.00123e-005	0	
-2.89085e-006	-2.00417e-005	0	
-2.02188e-006	-2.01745e-005	0	
-1.55344e-006	-2.03982e-005	0	
-1.17e-006	-2.00512e-005	0	
-9.27731e-007	-1.99908e-005	0	
-7.05086e-007	-1.99454e-005	0	
-4.70153e-007	-1.99038e-005	0	
-2.31972e-007	-1.98892e-005	0	
-1.58459e-013	-1.98851e-005	0	
2.31971e-007	-1.98892e-005	0	
4.70153e-007	-1.99038e-005	0	
7.05086e-007	-1.99454e-005	0	
9.2773e-007	-1.99908e-005	0	
1.17e-006	-2.00512e-005	0	
1.55344e-006	-2.03982e-005	0	
2.02188e-006	-2.01745e-005	0	
2.89085e-006	-2.00417e-005	0	
3.69455e-006	-2.00123e-005	0	
4.49269e-006	-2.0028e-005	0	
5.31286e-006	-2.00704e-005	0	
6.14086e-006	-2.01931e-005	0	
7.24332e-006	-2.02976e-005	0	
7.37388e-006	-2.02342e-005	0	
7.90342e-006	-2.02667e-005	0	
9.83017e-006	-2.05484e-005	0	
1.16808e-005	-2.08632e-005	0	
1.35094e-005	-2.12093e-005	0	
1.53636e-005	-2.15819e-005	0	
1.72858e-005	-2.19802e-005	0	
-1.82245e-005	-2.39832e-005	0	
-1.6244e-005	-2.36016e-005	0	
-1.43341e-005	-2.32395e-005	0	
-1.24474e-005	-2.28973e-005	0	
-1.05361e-005	-2.25766e-005	0	
-8.55144e-006	-2.22779e-005	0	
-7.89482e-006	-2.20191e-005	0	
-7.27172e-006	-2.16209e-005	0	
-6.68786e-006	-2.17611e-005	0	
-5.77934e-006	-2.18011e-005	0	
-4.9276e-006	-2.17718e-005	0	
-4.10155e-006	-2.1749e-005	0	
-3.27941e-006	-2.17389e-005	0	
-2.51555e-006	-2.17121e-005	0	
-1.74298e-006	-2.17753e-005	0	
-1.00541e-006	-2.19264e-005	0	
-1.04416e-006	-2.17271e-005	0	
-7.80665e-007	-2.1657e-005	0	
-5.06645e-007	-2.16399e-005	0	
-2.46916e-007	-2.16343e-005	0	
-1.70981e-013	-2.16351e-005	0	
2.46916e-007	-2.16343e-005	0	
5.06645e-007	-2.16399e-005	0	
7.80665e-007	-2.1657e-005	0	
1.04415e-006	-2.17271e-005	0	
1.00541e-006	-2.19264e-005	0	
1.74298e-006	-2.17753e-005	0	
2.51555e-006	-2.17121e-005	0	
3.27941e-006	-2.17389e-005	0	
4.10155e-006	-2.1749e-005	0	
4.9276e-006	-2.17718e-005	0	
5.77934e-006	-2.18011e-005	0	
6.68786e-006	-2.17611e-005	0	
7.27171e-006	-2.16209e-005	0	
7.89482e-006	-2.20191e-005	0	
8.55144e-006	-2.22779e-005	0	
1.05361e-005	-2.25766e-005	0	
1.24474e-005	-2.28973e-005	0	
1.43341e-005	-2.32395e-005	0	
1.6244e-005	-2.36016e-005	0	
1.82245e-005	-2.39832e-005	0	
-1.91141e-005	-2.60367e-005	0	
-1.7095e-005	-2.56722e-005	0	
-1.51474e-005	-2.53195e-005	0	
-1.32223e-005	-2.49786e-005	0	
-1.12716e-005	-2.46503e-005	0	
-9.24879e-006	-2.43349e-005	0	
-8.49266e-006	-2.40075e-005	0	
-7.74678e-006	-2.37958e-005	0	
-7.35689e-006	-2.36988e-005	0	
-6.23458e-006	-2.36054e-005	0	
-5.37232e-006	-2.3495e-005	0	
-4.52371e-006	-2.3452e-005	0	
-3.70076e-006	-2.34245e-005	0	
-2.92179e-006	-2.34024e-005	0	
-2.11994e-006	-2.33741e-005	0	
-1.02993e-006	-2.33236e-005	0	
-1.14895e-006	-2.33413e-005	0	
-8.44779e-007	-2.33719e-005	0	
-5.2003e-007	-2.33982e-005	0	
-2.50476e-007	-2.34014e-005	0	
-1.84336e-013	-2.34033e-005	0	
2.50476e-007	-2.34014e-005	0	
5.2003e-007	-2.33982e-005	0	
8.44778e-007	-2.33719e-005	0	
1.14895e-006	-2.33413e-005	0	
1.02993e-006	-2.33236e-005	0	
2.11994e-006	-2.33741e-005	0	
2.92179e-006	-2.34024e-005	0	
3.70076e-006	-2.34245e-005	0	
4.52371e-006	-2.3452e-005	0	
5.37232e-006	-2.3495e-005	0	
6.23458e-006	-2.36054e-005	0	
7.35689e-006	-2.36988e-005	0	
7.74678e-006	-2.37958e-005	0	
8.49266e-006	-2.40075e-005	0	
9.24879e-006	-2.43349e-005	0	
1.12716e-005	-2.46503e-005	0	
1.32223e-005	-2.49786e-005	0	
1.51474e-005	-2.53195e-005	0	
1.7095e-005	-2.56722e-005	0	
1.91141e-005	-2.60367e-005	0	
-1.99532e-005	-2.81193e-005	0	
-1.79163e-005	-2.7772e-005	0	