# vtk DataFile Version 4.1
vtk output
ASCII
DATASET UNSTRUCTURED_GRID

POINTS	56171	float
0	0	0	
2.5	0	0	
5	0	0	
7.5	0	0	
10	0	0	
12.5	0	0	
15	0	0	
17.5	0	0	
20	0	0	
22.5	0	0	
25	0	0	
0	2.5	0	
2.5	2.5	0	
5	2.5	0	
7.5	2.5	0	
10	2.5	0	
12.5	2.5	0	
15	2.5	0	
17.5	2.5	0	
20	2.5	0	
22.5	2.5	0	
25	2.5	0	
0	5	0	
2.5	5	0	
5	5	0	
7.5	5	0	
10	5	0	
12.5	5	0	
15	5	0	
17.5	5	0	
20	5	0	
22.5	5	0	
25	5	0	
0	7.5	0	
2.5	7.5	0	
5	7.5	0	
7.5	7.5	0	
10	7.5	0	
12.5	7.5	0	
15	7.5	0	
17.5	7.5	0	
20	7.5	0	
22.5	7.5	0	
25	7.5	0	
0	10	0	
2.5	10	0	
5	10	0	
7.5	10	0	
10	10	0	
12.5	10	0	
15	10	0	
17.5	10	0	
20	10	0	
22.5	10	0	
25	10	0	
0	12.5	0	
2.5	12.5	0	
5	12.5	0	
7.5	12.5	0	
10	12.5	0	
12.5	12.5	0	
15	12.5	0	
17.5	12.5	0	
20	12.5	0	
22.5	12.5	0	
25	12.5	0	
0	15	0	
2.5	15	0	
5	15	0	
7.5	15	0	
10	15	0	
12.5	15	0	
15	15	0	
17.5	15	0	
20	15	0	
22.5	15	0	
25	15	0	
0	17.5	0	
2.5	17.5	0	
5	17.5	0	
7.5	17.5	0	
10	17.5	0	
12.5	17.5	0	
15	17.5	0	
17.5	17.5	0	
20	17.5	0	
22.5	17.5	0	
25	17.5	0	
0	20	0	
2.5	20	0	
5	20	0	
7.5	20	0	
10	20	0	
12.5	20	0	
15	20	0	
17.5	20	0	
20	20	0	
22.5	20	0	
25	20	0	
0	22.5	0	
2.5	22.5	0	
5	22.5	0	
7.5	22.5	0	
10	22.5	0	
12.5	22.5	0	
15	22.5	0	
17.5	22.5	0	
20	22.5	0	
22.5	22.5	0	
25	22.5	0	
0	25	0	
2.5	25	0	
5	25	0	
7.5	25	0	
10	25	0	
12.5	25	0	
15	25	0	
17.5	25	0	
20	25	0	
22.5	25	0	
25	25	0	
0	27.5	0	
2.5	27.5	0	
5	27.5	0	
7.5	27.5	0	
10	27.5	0	
12.5	27.5	0	
15	27.5	0	
17.5	27.5	0	
20	27.5	0	
22.5	27.5	0	
25	27.5	0	
0	30	0	
2.5	30	0	
5	30	0	
7.5	30	0	
10	30	0	
12.5	30	0	
15	30	0	
17.5	30	0	
20	30	0	
22.5	30	0	
25	30	0	
0	32.5	0	
2.5	32.5	0	
5	32.5	0	
7.5	32.5	0	
10	32.5	0	
12.5	32.5	0	
15	32.5	0	
17.5	32.5	0	
20	32.5	0	
22.5	32.5	0	
25	32.5	0	
0	35	0	
2.5	35	0	
5	35	0	
7.5	35	0	
10	35	0	
12.5	35	0	
15	35	0	
17.5	35	0	
20	35	0	
22.5	35	0	
25	35	0	
0	37.5	0	
2.5	37.5	0	
5	37.5	0	
7.5	37.5	0	
10	37.5	0	
12.5	37.5	0	
15	37.5	0	
17.5	37.5	0	
20	37.5	0	
22.5	37.5	0	
25	37.5	0	
0	40	0	
2.5	40	0	
5	40	0	
7.5	40	0	
10	40	0	
12.5	40	0	
15	40	0	
17.5	40	0	
20	40	0	
22.5	40	0	
25	40	0	
0	42.5	0	
2.5	42.5	0	
5	42.5	0	
7.5	42.5	0	
10	42.5	0	
12.5	42.5	0	
15	42.5	0	
17.5	42.5	0	
20	42.5	0	
22.5	42.5	0	
25	42.5	0	
0	45	0	
2.5	45	0	
5	45	0	
7.5	45	0	
10	45	0	
12.5	45	0	
15	45	0	
17.5	45	0	
20	45	0	
22.5	45	0	
25	45	0	
0	47.5	0	
2.5	47.5	0	
5	47.5	0	
7.5	47.5	0	
10	47.5	0	
12.5	47.5	0	
15	47.5	0	
17.5	47.5	0	
20	47.5	0	
22.5	47.5	0	
25	47.5	0	
0	50	0	
2.5	50	0	
5	50	0	
7.5	50	0	
10	50	0	
12.5	50	0	
15	50	0	
17.5	50	0	
20	50	0	
22.5	50	0	
25	50	0	
0	52.5	0	
2.5	52.5	0	
5	52.5	0	
7.5	52.5	0	
10	52.5	0	
12.5	52.5	0	
15	52.5	0	
17.5	52.5	0	
20	52.5	0	
22.5	52.5	0	
25	52.5	0	
0	55	0	
2.5	55	0	
5	55	0	
7.5	55	0	
10	55	0	
12.5	55	0	
15	55	0	
17.5	55	0	
20	55	0	
22.5	55	0	
25	55	0	
0	57.5	0	
2.5	57.5	0	
5	57.5	0	
7.5	57.5	0	
10	57.5	0	
12.5	57.5	0	
15	57.5	0	
17.5	57.5	0	
20	57.5	0	
22.5	57.5	0	
25	57.5	0	
0	60	0	
2.5	60	0	
5	60	0	
7.5	60	0	
10	60	0	
12.5	60	0	
15	60	0	
17.5	60	0	
20	60	0	
22.5	60	0	
25	60	0	
0	62.5	0	
2.5	62.5	0	
5	62.5	0	
7.5	62.5	0	
10	62.5	0	
12.5	62.5	0	
15	62.5	0	
17.5	62.5	0	
20	62.5	0	
22.5	62.5	0	
25	62.5	0	
0	0	2.5	
2.5	0	2.5	
5	0	2.5	
7.5	0	2.5	
10	0	2.5	
12.5	0	2.5	
15	0	2.5	
17.5	0	2.5	
20	0	2.5	
22.5	0	2.5	
25	0	2.5	
0	2.5	2.5	
2.5	2.5	2.5	
5	2.5	2.5	
7.5	2.5	2.5	
10	2.5	2.5	
12.5	2.5	2.5	
15	2.5	2.5	
17.5	2.5	2.5	
20	2.5	2.5	
22.5	2.5	2.5	
25	2.5	2.5	
0	5	2.5	
2.5	5	2.5	
5	5	2.5	
7.5	5	2.5	
10	5	2.5	
12.5	5	2.5	
15	5	2.5	
17.5	5	2.5	
20	5	2.5	
22.5	5	2.5	
25	5	2.5	
0	7.5	2.5	
2.5	7.5	2.5	
5	7.5	2.5	
7.5	7.5	2.5	
10	7.5	2.5	
12.5	7.5	2.5	
15	7.5	2.5	
17.5	7.5	2.5	
20	7.5	2.5	
22.5	7.5	2.5	
25	7.5	2.5	
0	10	2.5	
2.5	10	2.5	
5	10	2.5	
7.5	10	2.5	
10	10	2.5	
12.5	10	2.5	
15	10	2.5	
17.5	10	2.5	
20	10	2.5	
22.5	10	2.5	
25	10	2.5	
0	12.5	2.5	
2.5	12.5	2.5	
5	12.5	2.5	
7.5	12.5	2.5	
10	12.5	2.5	
12.5	12.5	2.5	
15	12.5	2.5	
17.5	12.5	2.5	
20	12.5	2.5	
22.5	12.5	2.5	
25	12.5	2.5	
0	15	2.5	
2.5	15	2.5	
5	15	2.5	
7.5	15	2.5	
10	15	2.5	
12.5	15	2.5	
15	15	2.5	
17.5	15	2.5	
20	15	2.5	
22.5	15	2.5	
25	15	2.5	
0	17.5	2.5	
2.5	17.5	2.5	
5	17.5	2.5	
7.5	17.5	2.5	
10	17.5	2.5	
12.5	17.5	2.5	
15	17.5	2.5	
17.5	17.5	2.5	
20	17.5	2.5	
22.5	17.5	2.5	
25	17.5	2.5	
0	20	2.5	
2.5	20	2.5	
5	20	2.5	
7.5	20	2.5	
10	20	2.5	
12.5	20	2.5	
15	20	2.5	
17.5	20	2.5	
20	20	2.5	
22.5	20	2.5	
25	20	2.5	
0	22.5	2.5	
2.5	22.5	2.5	
5	22.5	2.5	
7.5	22.5	2.5	
10	22.5	2.5	
12.5	22.5	2.5	
15	22.5	2.5	
17.5	22.5	2.5	
20	22.5	2.5	
22.5	22.5	2.5	
25	22.5	2.5	
0	25	2.5	
2.5	25	2.5	
5	25	2.5	
7.5	25	2.5	
10	25	2.5	
12.5	25	2.5	
15	25	2.5	
17.5	25	2.5	
20	25	2.5	
22.5	25	2.5	
25	25	2.5	
0	27.5	2.5	
2.5	27.5	2.5	
5	27.5	2.5	
7.5	27.5	2.5	
10	27.5	2.5	
12.5	27.5	2.5	
15	27.5	2.5	
17.5	27.5	2.5	
20	27.5	2.5	
22.5	27.5	2.5	
25	27.5	2.5	
0	30	2.5	
2.5	30	2.5	
5	30	2.5	
7.5	30	2.5	
10	30	2.5	
12.5	30	2.5	
15	30	2.5	
17.5	30	2.5	
20	30	2.5	
22.5	30	2.5	
25	30	2.5	
0	32.5	2.5	
2.5	32.5	2.5	
5	32.5	2.5	
7.5	32.5	2.5	
10	32.5	2.5	
12.5	32.5	2.5	
15	32.5	2.5	
17.5	32.5	2.5	
20	32.5	2.5	
22.5	32.5	2.5	
25	32.5	2.5	
0	35	2.5	
2.5	35	2.5	
5	35	2.5	
7.5	35	2.5	
10	35	2.5	
12.5	35	2.5	
15	35	2.5	
17.5	35	2.5	
20	35	2.5	
22.5	35	2.5	
25	35	2.5	
0	37.5	2.5	
2.5	37.5	2.5	
5	37.5	2.5	
7.5	37.5	2.5	
10	37.5	2.5	
12.5	37.5	2.5	
15	37.5	2.5	
17.5	37.5	2.5	
20	37.5	2.5	
22.5	37.5	2.5	
25	37.5	2.5	
0	40	2.5	
2.5	40	2.5	
5	40	2.5	
7.5	40	2.5	
10	40	2.5	
12.5	40	2.5	
15	40	2.5	
17.5	40	2.5	
20	40	2.5	
22.5	40	2.5	
25	40	2.5	
0	42.5	2.5	
2.5	42.5	2.5	
5	42.5	2.5	
7.5	42.5	2.5	
10	42.5	2.5	
12.5	42.5	2.5	
15	42.5	2.5	
17.5	42.5	2.5	
20	42.5	2.5	
22.5	42.5	2.5	
25	42.5	2.5	
0	45	2.5	
2.5	45	2.5	
5	45	2.5	
7.5	45	2.5	
10	45	2.5	
12.5	45	2.5	
15	45	2.5	
17.5	45	2.5	
20	45	2.5	
22.5	45	2.5	
25	45	2.5	
0	47.5	2.5	
2.5	47.5	2.5	
5	47.5	2.5	
7.5	47.5	2.5	
10	47.5	2.5	
12.5	47.5	2.5	
15	47.5	2.5	
17.5	47.5	2.5	
20	47.5	2.5	
22.5	47.5	2.5	
25	47.5	2.5	
0	50	2.5	
2.5	50	2.5	
5	50	2.5	
7.5	50	2.5	
10	50	2.5	
12.5	50	2.5	
15	50	2.5	
17.5	50	2.5	
20	50	2.5	
22.5	50	2.5	
25	50	2.5	
0	52.5	2.5	
2.5	52.5	2.5	
5	52.5	2.5	
7.5	52.5	2.5	
10	52.5	2.5	
12.5	52.5	2.5	
15	52.5	2.5	
17.5	52.5	2.5	
20	52.5	2.5	
22.5	52.5	2.5	
25	52.5	2.5	
0	55	2.5	
2.5	55	2.5	
5	55	2.5	
7.5	55	2.5	
10	55	2.5	
12.5	55	2.5	
15	55	2.5	
17.5	55	2.5	
20	55	2.5	
22.5	55	2.5	
25	55	2.5	
0	57.5	2.5	
2.5	57.5	2.5	
5	57.5	2.5	
7.5	57.5	2.5	
10	57.5	2.5	
12.5	57.5	2.5	
15	57.5	2.5	
17.5	57.5	2.5	
20	57.5	2.5	
22.5	57.5	2.5	
25	57.5	2.5	
0	60	2.5	
2.5	60	2.5	
5	60	2.5	
7.5	60	2.5	
10	60	2.5	
12.5	60	2.5	
15	60	2.5	
17.5	60	2.5	
20	60	2.5	
22.5	60	2.5	
25	60	2.5	
0	62.5	2.5	
2.5	62.5	2.5	
5	62.5	2.5	
7.5	62.5	2.5	
10	62.5	2.5	
12.5	62.5	2.5	
15	62.5	2.5	
17.5	62.5	2.5	
20	62.5	2.5	
22.5	62.5	2.5	
25	62.5	2.5	
0	0	5	
2.5	0	5	
5	0	5	
7.5	0	5	
10	0	5	
12.5	0	5	
15	0	5	
17.5	0	5	
20	0	5	
22.5	0	5	
25	0	5	
0	2.5	5	
2.5	2.5	5	
5	2.5	5	
7.5	2.5	5	
10	2.5	5	
12.5	2.5	5	
15	2.5	5	
17.5	2.5	5	
20	2.5	5	
22.5	2.5	5	
25	2.5	5	
0	5	5	
2.5	5	5	
5	5	5	
7.5	5	5	
10	5	5	
12.5	5	5	
15	5	5	
17.5	5	5	
20	5	5	
22.5	5	5	
25	5	5	
0	7.5	5	
2.5	7.5	5	
5	7.5	5	
7.5	7.5	5	
10	7.5	5	
12.5	7.5	5	
15	7.5	5	
17.5	7.5	5	
20	7.5	5	
22.5	7.5	5	
25	7.5	5	
0	10	5	
2.5	10	5	
5	10	5	
7.5	10	5	
10	10	5	
12.5	10	5	
15	10	5	
17.5	10	5	
20	10	5	
22.5	10	5	
25	10	5	
0	12.5	5	
2.5	12.5	5	
5	12.5	5	
7.5	12.5	5	
10	12.5	5	
12.5	12.5	5	
15	12.5	5	
17.5	12.5	5	
20	12.5	5	
22.5	12.5	5	
25	12.5	5	
0	15	5	
2.5	15	5	
5	15	5	
7.5	15	5	
10	15	5	
12.5	15	5	
15	15	5	
17.5	15	5	
20	15	5	
22.5	15	5	
25	15	5	
0	17.5	5	
2.5	17.5	5	
5	17.5	5	
7.5	17.5	5	
10	17.5	5	
12.5	17.5	5	
15	17.5	5	
17.5	17.5	5	
20	17.5	5	
22.5	17.5	5	
25	17.5	5	
0	20	5	
2.5	20	5	
5	20	5	
7.5	20	5	
10	20	5	
12.5	20	5	
15	20	5	
17.5	20	5	
20	20	5	
22.5	20	5	
25	20	5	
0	22.5	5	
2.5	22.5	5	
5	22.5	5	
7.5	22.5	5	
10	22.5	5	
12.5	22.5	5	
15	22.5	5	
17.5	22.5	5	
20	22.5	5	
22.5	22.5	5	
25	22.5	5	
0	25	5	
2.5	25	5	
5	25	5	
7.5	25	5	
10	25	5	
12.5	25	5	
15	25	5	
17.5	25	5	
20	25	5	
22.5	25	5	
25	25	5	
0	27.5	5	
2.5	27.5	5	
5	27.5	5	
7.5	27.5	5	
10	27.5	5	
12.5	27.5	5	
15	27.5	5	
17.5	27.5	5	
20	27.5	5	
22.5	27.5	5	
25	27.5	5	
0	30	5	
2.5	30	5	
5	30	5	
7.5	30	5	
10	30	5	
12.5	30	5	
15	30	5	
17.5	30	5	
20	30	5	
22.5	30	5	
25	30	5	
0	32.5	5	
2.5	32.5	5	
5	32.5	5	
7.5	32.5	5	
10	32.5	5	
12.5	32.5	5	
15	32.5	5	
17.5	32.5	5	
20	32.5	5	
22.5	32.5	5	
25	32.5	5	
0	35	5	
2.5	35	5	
5	35	5	
7.5	35	5	
10	35	5	
12.5	35	5	
15	35	5	
17.5	35	5	
20	35	5	
22.5	35	5	
25	35	5	
0	37.5	5	
2.5	37.5	5	
5	37.5	5	
7.5	37.5	5	
10	37.5	5	
12.5	37.5	5	
15	37.5	5	
17.5	37.5	5	
20	37.5	5	
22.5	37.5	5	
25	37.5	5	
0	40	5	
2.5	40	5	
5	40	5	
7.5	40	5	
10	40	5	
12.5	40	5	
15	40	5	
17.5	40	5	
20	40	5	
22.5	40	5	
25	40	5	
0	42.5	5	
2.5	42.5	5	
5	42.5	5	
7.5	42.5	5	
10	42.5	5	
12.5	42.5	5	
15	42.5	5	
17.5	42.5	5	
20	42.5	5	
22.5	42.5	5	
25	42.5	5	
0	45	5	
2.5	45	5	
5	45	5	
7.5	45	5	
10	45	5	
12.5	45	5	
15	45	5	
17.5	45	5	
20	45	5	
22.5	45	5	
25	45	5	
0	47.5	5	
2.5	47.5	5	
5	47.5	5	
7.5	47.5	5	
10	47.5	5	
12.5	47.5	5	
15	47.5	5	
17.5	47.5	5	
20	47.5	5	
22.5	47.5	5	
25	47.5	5	
0	50	5	
2.5	50	5	
5	50	5	
7.5	50	5	
10	50	5	
12.5	50	5	
15	50	5	
17.5	50	5	
20	50	5	
22.5	50	5	
25	50	5	
0	52.5	5	
2.5	52.5	5	
5	52.5	5	
7.5	52.5	5	
10	52.5	5	
12.5	52.5	5	
15	52.5	5	
17.5	52.5	5	
20	52.5	5	
22.5	52.5	5	
25	52.5	5	
0	55	5	
2.5	55	5	
5	55	5	
7.5	55	5	
10	55	5	
12.5	55	5	
15	55	5	
17.5	55	5	
20	55	5	
22.5	55	5	
25	55	5	
0	57.5	5	
2.5	57.5	5	
5	57.5	5	
7.5	57.5	5	
10	57.5	5	
12.5	57.5	5	
15	57.5	5	
17.5	57.5	5	
20	57.5	5	
22.5	57.5	5	
25	57.5	5	
0	60	5	
2.5	60	5	
5	60	5	
7.5	60	5	
10	60	5	
12.5	60	5	
15	60	5	
17.5	60	5	
20	60	5	
22.5	60	5	
25	60	5	
0	62.5	5	
2.5	62.5	5	
5	62.5	5	
7.5	62.5	5	
10	62.5	5	
12.5	62.5	5	
15	62.5	5	
17.5	62.5	5	
20	62.5	5	
22.5	62.5	5	
25	62.5	5	
0	0	7.5	
2.5	0	7.5	
5	0	7.5	
7.5	0	7.5	
10	0	7.5	
12.5	0	7.5	
15	0	7.5	
17.5	0	7.5	
20	0	7.5	
22.5	0	7.5	
25	0	7.5	
0	2.5	7.5	
2.5	2.5	7.5	
5	2.5	7.5	
7.5	2.5	7.5	
10	2.5	7.5	
12.5	2.5	7.5	
15	2.5	7.5	
17.5	2.5	7.5	
20	2.5	7.5	
22.5	2.5	7.5	
25	2.5	7.5	
0	5	7.5	
2.5	5	7.5	
5	5	7.5	
7.5	5	7.5	
10	5	7.5	
12.5	5	7.5	
15	5	7.5	
17.5	5	7.5	
20	5	7.5	
22.5	5	7.5	
25	5	7.5	
0	7.5	7.5	
2.5	7.5	7.5	
5	7.5	7.5	
7.5	7.5	7.5	
[...]
POINT_DATA	56171
VECTORS u float
-1.33171e-010	-1.41665e-010	1.71365e-010	
3.56911e-011	-9.82166e-011	3.00245e-010	
5.27455e-011	-1.0328e-010	2.78797e-010	
3.21002e-011	-1.04131e-010	2.71464e-010	
1.54422e-011	-1.04694e-010	2.70922e-010	
-5.73003e-019	-1.04958e-010	2.7078e-010	
-1.54422e-011	-1.04694e-010	2.70922e-010	
-3.21002e-011	-1.04131e-010	2.71464e-010	
-5.27455e-011	-1.0328e-010	2.78797e-010	
-3.56911e-011	-9.82166e-011	3.00245e-010	
1.33171e-010	-1.41665e-010	1.71365e-010	
-7.50971e-011	2.97381e-011	2.92115e-010	
3.91925e-011	3.16353e-011	4.12789e-010	
5.14063e-011	3.37015e-011	3.97201e-010	
3.10426e-011	3.59273e-011	3.92686e-010	
1.49727e-011	3.66837e-011	3.93487e-010	
-5.90936e-019	3.69702e-011	3.93796e-010	
-1.49727e-011	3.66837e-011	3.93487e-010	
-3.10426e-011	3.59273e-011	3.92686e-010	
-5.14063e-011	3.37015e-011	3.97201e-010	
-3.91925e-011	3.16353e-011	4.12789e-010	
7.50971e-011	2.97381e-011	2.92115e-010	
-7.09586e-011	5.02139e-011	2.36116e-010	
3.33185e-011	5.04429e-011	3.44392e-010	
4.65025e-011	5.6522e-011	3.26371e-010	
2.76917e-011	5.94118e-011	3.20664e-010	
1.34157e-011	6.10125e-011	3.20353e-010	
-6.09027e-019	6.14967e-011	3.20318e-010	
-1.34157e-011	6.10125e-011	3.20353e-010	
-2.76917e-011	5.94118e-011	3.20664e-010	
-4.65025e-011	5.6522e-011	3.26371e-010	
-3.33185e-011	5.04429e-011	3.44392e-010	
7.09586e-011	5.02139e-011	2.36116e-010	
-6.25707e-011	3.60488e-011	1.98941e-010	
3.03686e-011	3.59521e-011	2.94771e-010	
4.18964e-011	4.11232e-011	2.77542e-010	
2.51011e-011	4.38648e-011	2.71994e-010	
1.21211e-011	4.52724e-011	2.71526e-010	
-6.29357e-019	4.57351e-011	2.71428e-010	
-1.21211e-011	4.52724e-011	2.71526e-010	
-2.51011e-011	4.38648e-011	2.71994e-010	
-4.18964e-011	4.11232e-011	2.77542e-010	
-3.03686e-011	3.59521e-011	2.94771e-010	
6.25707e-011	3.60488e-011	1.98941e-010	
-5.49055e-011	2.70425e-011	1.72067e-010	
2.68746e-011	2.71177e-011	2.56441e-010	
3.7468e-011	3.23136e-011	2.40465e-010	
2.25156e-011	3.47916e-011	2.35452e-010	
1.08931e-011	3.6087e-011	2.35016e-010	
-6.50552e-019	3.64896e-011	2.34931e-010	
-1.08931e-011	3.6087e-011	2.35016e-010	
-2.25156e-011	3.47916e-011	2.35452e-010	
-3.7468e-011	3.23136e-011	2.40465e-010	
-2.68746e-011	2.71177e-011	2.56441e-010	
5.49055e-011	2.70425e-011	1.72067e-010	
-4.78296e-011	2.06148e-011	1.4826e-010	
2.35365e-011	2.07608e-011	2.21713e-010	
3.29451e-011	2.5885e-011	2.07296e-010	
1.99005e-011	2.82743e-011	2.02797e-010	
9.64206e-012	2.94814e-011	2.02418e-010	
-6.71225e-019	2.98501e-011	2.02345e-010	
-9.64206e-012	2.94814e-011	2.02418e-010	
-1.99005e-011	2.82743e-011	2.02797e-010	
-3.29451e-011	2.5885e-011	2.07296e-010	
-2.35365e-011	2.07608e-011	2.21713e-010	
4.78296e-011	2.06148e-011	1.4826e-010	
-4.10356e-011	1.60423e-011	1.2633e-010	
2.02287e-011	1.62712e-011	1.89278e-010	
2.84298e-011	2.13835e-011	1.76577e-010	
1.72337e-011	2.37388e-011	1.72628e-010	
8.36537e-012	2.49087e-011	1.72279e-010	
-6.8981e-019	2.52561e-011	1.72211e-010	
-8.36537e-012	2.49087e-011	1.72279e-010	
-1.72337e-011	2.37388e-011	1.72628e-010	
-2.84298e-011	2.13835e-011	1.76577e-010	
-2.02287e-011	1.62712e-011	1.89278e-010	
4.10356e-011	1.60423e-011	1.2633e-010	
-3.44592e-011	1.2712e-011	1.05529e-010	
1.69844e-011	1.2997e-011	1.58301e-010	
2.39381e-011	1.81057e-011	1.47424e-010	
1.45484e-011	2.04602e-011	1.44041e-010	
7.07521e-012	2.16202e-011	1.43724e-010	
-7.0453e-019	2.19584e-011	1.43664e-010	
-7.07521e-012	2.16202e-011	1.43724e-010	
-1.45484e-011	2.04602e-011	1.44041e-010	
-2.39381e-011	1.81057e-011	1.47424e-010	
-1.69844e-011	1.2997e-011	1.58301e-010	
3.44592e-011	1.2712e-011	1.05529e-010	
-2.80285e-011	1.0274e-011	8.54964e-011	
1.3801e-011	1.06051e-011	1.28363e-010	
1.9492e-011	1.5712e-011	1.19389e-010	
1.18676e-011	1.80774e-011	1.16582e-010	
5.77716e-012	1.92386e-011	1.16307e-010	
-7.1336e-019	1.95787e-011	1.16257e-010	
-5.77716e-012	1.92386e-011	1.16307e-010	
-1.18676e-011	1.80774e-011	1.16582e-010	
-1.9492e-011	1.5712e-011	1.19389e-010	
-1.3801e-011	1.06051e-011	1.28363e-010	
2.80285e-011	1.0274e-011	8.54964e-011	
-2.16987e-011	8.51503e-012	6.6011e-011	
1.06731e-011	8.87889e-012	9.91574e-011	
1.50969e-011	1.39834e-011	9.21378e-011	
9.20136e-012	1.63659e-011	8.99359e-011	
4.48198e-012	1.7529e-011	8.971e-011	
-7.14011e-019	1.78817e-011	8.96716e-011	
-4.48198e-012	1.7529e-011	8.971e-011	
-9.20136e-012	1.63659e-011	8.99359e-011	
-1.50969e-011	1.39834e-011	9.21378e-011	
-1.06731e-011	8.87889e-012	9.91574e-011	
2.16987e-011	8.51503e-012	6.6011e-011	
-1.54427e-011	7.3e-012	4.69182e-011	
7.5936e-012	7.68478e-012	7.04765e-011	
1.07478e-011	1.27822e-011	6.544e-011	
6.55486e-012	1.51795e-011	6.3863e-011	
3.19669e-012	1.63476e-011	6.36883e-011	
-7.03959e-019	1.67076e-011	6.36615e-011	
-3.19669e-012	1.63476e-011	6.36883e-011	
-6.55487e-012	1.51795e-011	6.3863e-011	
-1.07478e-011	1.27822e-011	6.544e-011	
-7.5936e-012	7.68478e-012	7.04765e-011	
1.54427e-011	7.3e-012	4.69182e-011	
-9.25142e-012	6.52995e-012	2.80543e-011	
4.5427e-012	6.93178e-012	4.2148e-011	
6.43199e-012	1.20219e-011	3.91214e-011	
3.92544e-012	1.44295e-011	3.8175e-011	
1.91531e-012	1.56038e-011	3.8066e-011	
-6.80544e-019	1.59611e-011	3.80437e-011	
-1.91531e-012	1.56038e-011	3.8066e-011	
-3.92544e-012	1.44295e-011	3.8175e-011	
-6.432e-012	1.20219e-011	3.91214e-011	
-4.5427e-012	6.93178e-012	4.2148e-011	
9.25142e-012	6.52995e-012	2.80543e-011	
-3.08114e-012	6.15501e-012	9.33778e-012	
1.51132e-012	6.56893e-012	1.40298e-011	
2.14033e-012	1.16538e-011	1.30171e-011	
1.30909e-012	1.40696e-011	1.27007e-011	
6.38506e-013	1.5245e-011	1.2666e-011	
-6.41139e-019	1.56029e-011	1.2657e-011	
-6.38507e-013	1.5245e-011	1.2666e-011	
-1.30909e-012	1.40696e-011	1.27007e-011	
-2.14033e-012	1.16538e-011	1.30171e-011	
-1.51132e-012	6.56893e-012	1.40298e-011	
3.08114e-012	6.15501e-012	9.33778e-012	
3.08114e-012	6.15501e-012	-9.33777e-012	
-1.51132e-012	6.56893e-012	-1.40298e-011	
-2.14033e-012	1.16538e-011	-1.30171e-011	
-1.30909e-012	1.40696e-011	-1.27007e-011	
-6.38507e-013	1.5245e-011	-1.26659e-011	
-5.83397e-019	1.56029e-011	-1.2657e-011	
6.38506e-013	1.5245e-011	-1.26659e-011	
1.30909e-012	1.40696e-011	-1.27007e-011	
2.14033e-012	1.16538e-011	-1.30171e-011	
1.51132e-012	6.56893e-012	-1.40298e-011	
-3.08114e-012	6.15501e-012	-9.33777e-012	
9.25141e-012	6.52995e-012	-2.80543e-011	
-4.5427e-012	6.93178e-012	-4.2148e-011	
-6.432e-012	1.20219e-011	-3.91214e-011	
-3.92544e-012	1.44295e-011	-3.8175e-011	
-1.91531e-012	1.56038e-011	-3.8066e-011	
-5.05545e-019	1.59611e-011	-3.80437e-011	
1.91531e-012	1.56038e-011	-3.8066e-011	
3.92544e-012	1.44295e-011	-3.8175e-011	
6.43199e-012	1.20219e-011	-3.91214e-011	
4.5427e-012	6.93178e-012	-4.2148e-011	
-9.25142e-012	6.52995e-012	-2.80543e-011	
1.54427e-011	7.3e-012	-4.69182e-011	
-7.5936e-012	7.68478e-012	-7.04765e-011	
-1.07478e-011	1.27822e-011	-6.544e-011	
-6.55487e-012	1.51795e-011	-6.3863e-011	
-3.19669e-012	1.63476e-011	-6.36883e-011	
-4.0671e-019	1.67076e-011	-6.36615e-011	
3.19669e-012	1.63476e-011	-6.36883e-011	
6.55486e-012	1.51795e-011	-6.3863e-011	
1.07478e-011	1.27822e-011	-6.544e-011	
7.5936e-012	7.68478e-012	-7.04765e-011	
-1.54427e-011	7.3e-012	-4.69182e-011	
2.16987e-011	8.51503e-012	-6.6011e-011	
-1.06731e-011	8.87889e-012	-9.91574e-011	
-1.50969e-011	1.39834e-011	-9.21378e-011	
-9.20136e-012	1.63659e-011	-8.99359e-011	
-4.48198e-012	1.7529e-011	-8.971e-011	
-2.87218e-019	1.78817e-011	-8.96716e-011	
4.48198e-012	1.7529e-011	-8.971e-011	
9.20136e-012	1.63659e-011	-8.99359e-011	
1.50969e-011	1.39834e-011	-9.21378e-011	
1.06731e-011	8.87889e-012	-9.91574e-011	
-2.16987e-011	8.51503e-012	-6.6011e-011	
2.80285e-011	1.0274e-011	-8.54964e-011	
-1.3801e-011	1.06051e-011	-1.28363e-010	
-1.9492e-011	1.5712e-011	-1.19389e-010	
-1.18676e-011	1.80774e-011	-1.16582e-010	
-5.77716e-012	1.92386e-011	-1.16307e-010	
-1.48851e-019	1.95787e-011	-1.16257e-010	
5.77716e-012	1.92386e-011	-1.16307e-010	
1.18676e-011	1.80774e-011	-1.16582e-010	
1.9492e-011	1.5712e-011	-1.19389e-010	
1.3801e-011	1.06051e-011	-1.28363e-010	
-2.80285e-011	1.0274e-011	-8.54964e-011	
3.44592e-011	1.2712e-011	-1.05529e-010	
-1.69844e-011	1.2997e-011	-1.58301e-010	
-2.39381e-011	1.81057e-011	-1.47424e-010	
-1.45484e-011	2.04602e-011	-1.44041e-010	
-7.07521e-012	2.16202e-011	-1.43724e-010	
5.00288e-021	2.19584e-011	-1.43664e-010	
7.07521e-012	2.16202e-011	-1.43724e-010	
1.45484e-011	2.04602e-011	-1.44041e-010	
2.39381e-011	1.81057e-011	-1.47424e-010	
1.69844e-011	1.2997e-011	-1.58301e-010	
-3.44592e-011	1.2712e-011	-1.05529e-010	
4.10356e-011	1.60423e-011	-1.2633e-010	
-2.02287e-011	1.62712e-011	-1.89278e-010	
-2.84298e-011	2.13835e-011	-1.76577e-010	
-1.72337e-011	2.37388e-011	-1.72628e-010	
-8.36537e-012	2.49087e-011	-1.72279e-010	
1.69321e-019	2.52561e-011	-1.72211e-010	
8.36537e-012	2.49087e-011	-1.72279e-010	
1.72337e-011	2.37388e-011	-1.72628e-010	
2.84298e-011	2.13835e-011	-1.76577e-010	
2.02287e-011	1.62712e-011	-1.89278e-010	
-4.10356e-011	1.60423e-011	-1.2633e-010	
4.78296e-011	2.06148e-011	-1.4826e-010	
-2.35365e-011	2.07608e-011	-2.21713e-010	
-3.29451e-011	2.5885e-011	-2.07296e-010	
-1.99005e-011	2.82743e-011	-2.02797e-010	
-9.64206e-012	2.94814e-011	-2.02418e-010	
3.37567e-019	2.98501e-011	-2.02345e-010	
9.64206e-012	2.94814e-011	-2.02418e-010	
1.99005e-011	2.82743e-011	-2.02797e-010	
3.29451e-011	2.5885e-011	-2.07296e-010	
2.35365e-011	2.07608e-011	-2.21713e-010	
-4.78296e-011	2.06148e-011	-1.4826e-010	
5.49055e-011	2.70425e-011	-1.72067e-010	
-2.68746e-011	2.71177e-011	-2.56441e-010	
-3.7468e-011	3.23136e-011	-2.40465e-010	
-2.25156e-011	3.47916e-011	-2.35452e-010	
-1.08931e-011	3.6087e-011	-2.35016e-010	
5.01961e-019	3.64896e-011	-2.34931e-010	
1.08931e-011	3.6087e-011	-2.35016e-010	
2.25156e-011	3.47916e-011	-2.35452e-010	
3.7468e-011	3.23136e-011	-2.40465e-010	
2.68746e-011	2.71177e-011	-2.56441e-010	
-5.49055e-011	2.70425e-011	-1.72067e-010	
6.25707e-011	3.60488e-011	-1.98941e-010	
-3.03686e-011	3.59521e-011	-2.94771e-010	
-4.18964e-011	4.11232e-011	-2.77542e-010	
-2.51011e-011	4.38648e-011	-2.71994e-010	
-1.21211e-011	4.52724e-011	-2.71526e-010	
6.53872e-019	4.57351e-011	-2.71428e-010	
1.21211e-011	4.52724e-011	-2.71526e-010	
2.51011e-011	4.38648e-011	-2.71994e-010	
4.18964e-011	4.11232e-011	-2.77542e-010	
3.03686e-011	3.59521e-011	-2.94771e-010	
-6.25707e-011	3.60488e-011	-1.98941e-010	
7.09586e-011	5.02139e-011	-2.36116e-010	
-3.33185e-011	5.04429e-011	-3.44392e-010	
-4.65025e-011	5.6522e-011	-3.26371e-010	
-2.76917e-011	5.94118e-011	-3.20664e-010	
-1.34157e-011	6.10125e-011	-3.20353e-010	
7.84487e-019	6.14967e-011	-3.20318e-010	
1.34157e-011	6.10125e-011	-3.20353e-010	
2.76917e-011	5.94118e-011	-3.20664e-010	
4.65025e-011	5.6522e-011	-3.26371e-010	
3.33185e-011	5.04429e-011	-3.44392e-010	
-7.09586e-011	5.02139e-011	-2.36116e-010	
7.50971e-011	2.97381e-011	-2.92115e-010	
-3.91925e-011	3.16353e-011	-4.12789e-010	
-5.14063e-011	3.37015e-011	-3.97201e-010	
-3.10426e-011	3.59273e-011	-3.92686e-010	
-1.49727e-011	3.66837e-011	-3.93487e-010	
8.82849e-019	3.69702e-011	-3.93796e-010	
1.49727e-011	3.66837e-011	-3.93487e-010	
3.10426e-011	3.59273e-011	-3.92686e-010	
5.14063e-011	3.37015e-011	-3.97201e-010	
3.91925e-011	3.16353e-011	-4.12789e-010	
-7.50971e-011	2.97381e-011	-2.92115e-010	
1.33171e-010	-1.41665e-010	-1.71365e-010	
-3.56911e-011	-9.82166e-011	-3.00245e-010	
-5.27455e-011	-1.0328e-010	-2.78797e-010	
-3.21002e-011	-1.04131e-010	-2.71464e-010	
-1.54422e-011	-1.04694e-010	-2.70922e-010	
9.57827e-019	-1.04958e-010	-2.7078e-010	
1.54422e-011	-1.04694e-010	-2.70922e-010	
3.21002e-011	-1.04131e-010	-2.71464e-010	
5.27455e-011	-1.0328e-010	-2.78797e-010	
3.56911e-011	-9.82166e-011	-3.00245e-010	
-1.33171e-010	-1.41665e-010	-1.71365e-010	
-15.531	-15.2029	-28.612	
-10.2289	-16.9203	-24.3473	
-6.31427	-17.7191	-23.3775	
-3.85735	-18.2281	-23.3733	
-1.83478	-18.4885	-23.4298	
-1.40512e-008	-18.5743	-23.4586	
1.83478	-18.4885	-23.4298	
3.85735	-18.2281	-23.3733	
6.31427	-17.7191	-23.3775	
10.2289	-16.9203	-24.3473	
15.531	-15.2029	-28.612	
-14.5553	-10.1279	-21.4617	
-9.28673	-11.1019	-16.9834	
-5.73278	-11.7909	-15.7553	
-3.50403	-12.1839	-15.5157	
-1.66731	-12.3998	-15.4406	
-1.43951e-008	-12.467	-15.4269	
1.66731	-12.3998	-15.4406	
3.50403	-12.1839	-15.5157	
5.73278	-11.7909	-15.7553	
9.28673	-11.1019	-16.9834	
14.5553	-10.1279	-21.4617	
-13.2017	-6.73202	-17.7774	
-8.50392	-7.64144	-13.6061	
-5.2349	-8.18018	-12.4396	
-3.19247	-8.51133	-12.1903	
-1.51645	-8.69366	-12.0971	
-1.48464e-008	-8.7518	-12.0764	
1.51645	-8.69366	-12.0971	
3.19247	-8.51133	-12.1903	
5.2349	-8.18018	-12.4396	
8.50392	-7.64144	-13.6061	
13.2017	-6.73202	-17.7774	
-11.8765	-4.98259	-15.4433	
-7.68132	-5.87645	-11.6206	
-4.75499	-6.36053	-10.575	
-2.90144	-6.64754	-10.3493	
-1.37833	-6.80766	-10.2644	
-1.53319e-008	-6.85867	-10.2447	
1.37833	-6.80766	-10.2644	
2.90144	-6.64754	-10.3493	
4.75499	-6.36053	-10.575	
7.68132	-5.87645	-11.6206	
11.8765	-4.98259	-15.4433	
-10.5401	-3.83362	-13.4603	
-6.84985	-4.71713	-10.017	
-4.26257	-5.17732	-9.08398	
-2.60921	-5.43931	-8.88479	
-1.24104	-5.58197	-8.81015	
-1.58294e-008	-5.62733	-8.79299	
1.24104	-5.58197	-8.81015	
2.60921	-5.43931	-8.88479	
4.26257	-5.17732	-9.08398	
6.84985	-4.71713	-10.017	
10.5401	-3.83362	-13.4603	
-9.2325	-3.04114	-11.6612	
-6.01536	-3.9177	-8.61485	
-3.75986	-4.37023	-7.79258	
-2.30867	-4.6197	-7.61783	
-1.10016	-4.75223	-7.55315	
-1.63086e-008	-4.79383	-7.53838	
1.10016	-4.75223	-7.55315	
2.30867	-4.6197	-7.61783	
3.75986	-4.37023	-7.79258	
6.01536	-3.9177	-8.61485	
9.2325	-3.04114	-11.6612	
-7.94693	-2.47129	-9.96665	
-5.18663	-3.34045	-7.32512	
-3.25174	-3.79102	-6.61252	
-2.00186	-4.03578	-6.46121	
-0.95556	-4.16338	-6.40567	
-1.67344e-008	-4.20302	-6.39307	
0.95556	-4.16338	-6.40567	
2.00186	-4.03578	-6.46121	
3.25174	-3.79102	-6.61252	
5.18663	-3.34045	-7.32512	
7.94693	-2.47129	-9.96666	
-6.68379	-2.05467	-8.34282	
-4.36654	-2.91642	-6.10927	
-2.74322	-3.36708	-5.50627	
-1.69194	-3.61093	-5.37796	
-0.808686	-3.73684	-5.3311	
-1.70665e-008	-3.77569	-5.32051	
0.808686	-3.73684	-5.3311	
1.69194	-3.61093	-5.37796	
2.74322	-3.36708	-5.50627	
4.36654	-2.91642	-6.10927	
6.68379	-2.05467	-8.34282	
-5.44028	-1.74957	-6.76879	
-3.5562	-2.60421	-4.94369	
-2.23709	-3.05538	-4.45034	
-1.38153	-3.29995	-4.345	
-0.660935	-3.4258	-4.30663	
-1.72579e-008	-3.46452	-4.29797	
0.660935	-3.4258	-4.30663	
1.38153	-3.29995	-4.345	
2.23709	-3.05538	-4.45034	
3.5562	-2.60421	-4.94369	
5.44028	-1.74957	-6.76879	
-4.21347	-1.52944	-5.23093	
-2.75515	-2.37778	-3.81344	
-1.7346	-2.82935	-3.42977	
-1.07211	-3.0751	-3.34757	
-0.513223	-3.20155	-3.31765	
-1.72554e-008	-3.24042	-3.3109	
0.513223	-3.20155	-3.31765	
1.0721	-3.0751	-3.34757	
1.7346	-2.82935	-3.42977	
2.75515	-2.37778	-3.81344	
4.21347	-1.52944	-5.23093	
-2.99998	-1.37693	-3.71899	
-1.96198	-2.22019	-2.7078	
-1.23585	-2.67196	-2.43381	
-0.764236	-2.91879	-2.37493	
-0.36599	-3.04596	-2.35349	
-1.69995e-008	-3.08506	-2.34866	
0.36599	-3.04596	-2.35349	
0.764236	-2.91879	-2.37493	
1.23585	-2.67196	-2.43381	
1.96198	-2.22019	-2.7078	
2.99998	-1.37693	-3.71899	
-1.79611	-1.28082	-2.22461	
-1.17474	-2.12054	-1.61847	
-0.740177	-2.57236	-1.45411	
-0.457852	-2.81996	-1.41871	
-0.219313	-2.94769	-1.40582	
-1.64266e-008	-2.98699	-1.40291	
0.219313	-2.94769	-1.40582	
0.457852	-2.81996	-1.41871	
0.740177	-2.57236	-1.45411	
1.17474	-2.12054	-1.61847	
1.79611	-1.28082	-2.22461	
-0.598047	-1.23435	-0.740421	
-0.391172	-2.07225	-0.538478	
-0.246495	-2.52407	-0.483697	
-0.152496	-2.77207	-0.471881	
-0.0730538	-2.9001	-0.467581	
-1.54738e-008	-2.93951	-0.466609	
0.0730538	-2.9001	-0.467581	
0.152496	-2.77207	-0.471881	
0.246495	-2.52407	-0.483697	
0.391172	-2.07225	-0.538478	
0.598047	-1.23435	-0.740421	
0.598047	-1.23435	0.740421	
0.391172	-2.07225	0.538478	
0.246495	-2.52407	0.483697	
0.152496	-2.77207	0.471881	
0.0730538	-2.9001	0.467581	
-1.4084e-008	-2.93951	0.46661	
-0.0730538	-2.9001	0.467581	
-0.152496	-2.77207	0.471881	
-0.246495	-2.52407	0.483697	
-0.391172	-2.07225	0.538478	
-0.598047	-1.23435	0.740421	
1.79611	-1.28082	2.22461	
1.17474	-2.12054	1.61847	
0.740177	-2.57236	1.45411	
0.457852	-2.81996	1.41871	
0.219313	-2.94769	1.40582	
-1.22137e-008	-2.98699	1.40291	
-0.219313	-2.94769	1.40582	
-0.457852	-2.81996	1.41871	
-0.740177	-2.57236	1.45411	
-1.17474	-2.12054	1.61847	
-1.79611	-1.28082	2.22461	
2.99998	-1.37693	3.71899	
1.96198	-2.22019	2.7078	
1.23585	-2.67196	2.43381	
0.764236	-2.91879	2.37493	
0.36599	-3.04596	2.35349	
-9.84062e-009	-3.08506	2.34866	
-0.36599	-3.04596	2.35349	
-0.764236	-2.91879	2.37493	
-1.23585	-2.67196	2.43381	
-1.96198	-2.22019	2.7078	
-2.99998	-1.37693	3.71899	
4.21347	-1.52944	5.23093	
2.75515	-2.37778	3.81344	
1.7346	-2.82935	3.42977	
1.0721	-3.0751	3.34757	
0.513223	-3.20155	3.31765	
-6.97095e-009	-3.24042	3.3109	
-0.513223	-3.20155	3.31765	
-1.07211	-3.0751	3.34757	
-1.7346	-2.82935	3.42977	
-2.75515	-2.37778	3.81344	
-4.21347	-1.52944	5.23093	
5.44028	-1.74957	6.76879	
3.5562	-2.60421	4.94369	
2.23709	-3.05538	4.45034	
1.38153	-3.29995	4.345	
0.660935	-3.4258	4.30663	
-3.64586e-009	-3.46452	4.29797	
-0.660935	-3.4258	4.30663	
-1.38153	-3.29995	4.345	
-2.23709	-3.05538	4.45034	
-3.5562	-2.60421	4.94369	
-5.44028	-1.74957	6.76879	
6.68379	-2.05467	8.34282	
4.36654	-2.91642	6.10927	
2.74322	-3.36708	5.50627	
1.69194	-3.61093	5.37796	
0.808686	-3.73684	5.3311	
5.48417e-011	-3.77569	5.32051	
-0.808686	-3.73684	5.3311	
-1.69194	-3.61093	5.37796	
-2.74322	-3.36708	5.50627	
-4.36654	-2.91642	6.10927	
-6.68379	-2.05467	8.34282	
7.94693	-2.47129	9.96666	
5.18663	-3.34045	7.32512	
3.25174	-3.79102	6.61252	
2.00186	-4.03578	6.46121	
0.95556	-4.16338	6.40567	
4.01202e-009	-4.20302	6.39307	
-0.95556	-4.16338	6.40567	
-2.00186	-4.03578	6.46121	
-3.25174	-3.79102	6.61252	
-5.18663	-3.34045	7.32512	
-7.94693	-2.47129	9.96666	
9.2325	-3.04114	11.6612	
6.01536	-3.9177	8.61485	
3.75986	-4.37023	7.79258	
2.30867	-4.6197	7.61783	
1.10016	-4.75223	7.55315	
8.07017e-009	-4.79383	7.53838	
-1.10016	-4.75223	7.55315	
-2.30867	-4.6197	7.61783	
-3.75986	-4.37023	7.79258	
-6.01536	-3.9177	8.61485	
-9.2325	-3.04114	11.6612	
10.5401	-3.83362	13.4603	
6.84985	-4.71713	10.017	
4.26257	-5.17732	9.08398	
2.60921	-5.43931	8.88479	
1.24104	-5.58197	8.81015	
1.20442e-008	-5.62733	8.79299	
-1.24104	-5.58197	8.81015	
-2.60921	-5.43931	8.88479	
-4.26257	-5.17732	9.08398	
-6.84985	-4.71713	10.017	
-10.5401	-3.83362	13.4603	
11.8765	-4.98259	15.4433	
7.68132	-5.87645	11.6206	
4.75499	-6.36053	10.575	
2.90144	-6.64754	10.3493	
1.37833	-6.80766	10.2644	
1.57298e-008	-6.85867	10.2447	
-1.37833	-6.80766	10.2644	
-2.90144	-6.64754	10.3493	
-4.75499	-6.36053	10.575	
-7.68132	-5.87645	11.6206	
-11.8765	-4.98259	15.4433	
13.2017	-6.73202	17.7774	
8.50392	-7.64144	13.6061	
5.2349	-8.18018	12.4396	
3.19247	-8.51133	12.1903	
1.51645	-8.69366	12.0971	
1.89178e-008	-8.7518	12.0764	
-1.51645	-8.69366	12.0971	
-3.19247	-8.51133	12.1903	
-5.2349	-8.18018	12.4396	
-8.50392	-7.64144	13.6061	
-13.2017	-6.73202	17.7774	
14.5553	-10.1279	21.4617	
9.28673	-11.1019	16.9834	
5.73278	-11.7909	15.7553	
3.50403	-12.1839	15.5157	
1.66731	-12.3998	15.4406	
2.14063e-008	-12.467	15.4269	
-1.66731	-12.3998	15.4406	
-3.50403	-12.1839	15.5157	
-5.73278	-11.7909	15.7553	
-9.28673	-11.1019	16.9834	
-14.5553	-10.1279	21.4617	
15.531	-15.2029	28.612	
10.2289	-16.9203	24.3473	
6.31427	-17.7191	23.3775	
3.85735	-18.2281	23.3733	
1.83478	-18.4885	23.4298	
2.29162e-008	-18.5743	23.4586	
-1.83478	-18.4885	23.4298	
-3.85735	-18.2281	23.3733	
-6.31427	-17.7191	23.3775	
-10.2289	-16.9203	24.3473	
-15.531	-15.2029	28.612	
-21.4175	-25.0854	-46.6868	
-16.0547	-27.0402	-43.4644	
-11.0735	-28.5371	-42.0914	
-6.92881	-29.4695	-41.6243	
-3.33029	-29.9721	-41.4791	
-2.82283e-008	-30.1327	-41.4524	
3.33029	-29.9721	-41.4791	
6.92881	-29.4695	-41.6243	
11.0735	-28.5371	-42.0914	
16.0547	-27.0402	-43.4644	
21.4175	-25.0854	-46.6868	
-19.7831	-20.049	-37.9756	
-14.6863	-21.5207	-34.8231	
-10.0934	-22.6917	-33.2802	
-6.31251	-23.4627	-32.6341	
-3.03602	-23.8896	-32.3759	
-2.8899e-008	-24.0259	-32.3098	