# vtk DataFile Version 4.1
vtk output
ASCII
DATASET UNSTRUCTURED_GRID

POINTS	14586	float
0	0	0	
0.04	0	0	
0.08	0	0	
0.12	0	0	
0.16	0	0	
0.2	0	0	
0.24	0	0	
0.28	0	0	
0.32	0	0	
0.36	0	0	
0.4	0	0	
0	0.04	0	
0.04	0.04	0	
0.08	0.04	0	
0.12	0.04	0	
0.16	0.04	0	
0.2	0.04	0	
0.24	0.04	0	
0.28	0.04	0	
0.32	0.04	0	
0.36	0.04	0	
0.4	0.04	0	
0	0.08	0	
0.04	0.08	0	
0.08	0.08	0	
0.12	0.08	0	
0.16	0.08	0	
0.2	0.08	0	
0.24	0.08	0	
0.28	0.08	0	
0.32	0.08	0	
0.36	0.08	0	
0.4	0.08	0	
0	0.12	0	
0.04	0.12	0	
0.08	0.12	0	
0.12	0.12	0	
0.16	0.12	0	
0.2	0.12	0	
0.24	0.12	0	
0.28	0.12	0	
0.32	0.12	0	
0.36	0.12	0	
0.4	0.12	0	
0	0.16	0	
0.04	0.16	0	
0.08	0.16	0	
0.12	0.16	0	
0.16	0.16	0	
0.2	0.16	0	
0.24	0.16	0	
0.28	0.16	0	
0.32	0.16	0	
0.36	0.16	0	
0.4	0.16	0	
0	0.2	0	
0.04	0.2	0	
0.08	0.2	0	
0.12	0.2	0	
0.16	0.2	0	
0.2	0.2	0	
0.24	0.2	0	
0.28	0.2	0	
0.32	0.2	0	
0.36	0.2	0	
0.4	0.2	0	
0	0.24	0	
0.04	0.24	0	
0.08	0.24	0	
0.12	0.24	0	
0.16	0.24	0	
0.2	0.24	0	
0.24	0.24	0	
0.28	0.24	0	
0.32	0.24	0	
0.36	0.24	0	
0.4	0.24	0	
0	0.28	0	
0.04	0.28	0	
0.08	0.28	0	
0.12	0.28	0	
0.16	0.28	0	
0.2	0.28	0	
0.24	0.28	0	
0.28	0.28	0	
0.32	0.28	0	
0.36	0.28	0	
0.4	0.28	0	
0	0.32	0	
0.04	0.32	0	
0.08	0.32	0	
0.12	0.32	0	
0.16	0.32	0	
0.2	0.32	0	
0.24	0.32	0	
0.28	0.32	0	
0.32	0.32	0	
0.36	0.32	0	
0.4	0.32	0	
0	0.36	0	
0.04	0.36	0	
0.08	0.36	0	
0.12	0.36	0	
0.16	0.36	0	
0.2	0.36	0	
0.24	0.36	0	
0.28	0.36	0	
0.32	0.36	0	
0.36	0.36	0	
0.4	0.36	0	
0	0.4	0	
0.04	0.4	0	
0.08	0.4	0	
0.12	0.4	0	
0.16	0.4	0	
0.2	0.4	0	
0.24	0.4	0	
0.28	0.4	0	
0.32	0.4	0	
0.36	0.4	0	
0.4	0.4	0	
0	0.44	0	
0.04	0.44	0	
0.08	0.44	0	
0.12	0.44	0	
0.16	0.44	0	
0.2	0.44	0	
0.24	0.44	0	
0.28	0.44	0	
0.32	0.44	0	
0.36	0.44	0	
0.4	0.44	0	
0	0.48	0	
0.04	0.48	0	
0.08	0.48	0	
0.12	0.48	0	
0.16	0.48	0	
0.2	0.48	0	
0.24	0.48	0	
0.28	0.48	0	
0.32	0.48	0	
0.36	0.48	0	
0.4	0.48	0	
0	0.52	0	
0.04	0.52	0	
0.08	0.52	0	
0.12	0.52	0	
0.16	0.52	0	
0.2	0.52	0	
0.24	0.52	0	
0.28	0.52	0	
0.32	0.52	0	
0.36	0.52	0	
0.4	0.52	0	
0	0.56	0	
0.04	0.56	0	
0.08	0.56	0	
0.12	0.56	0	
0.16	0.56	0	
0.2	0.56	0	
0.24	0.56	0	
0.28	0.56	0	
0.32	0.56	0	
0.36	0.56	0	
0.4	0.56	0	
0	0.6	0	
0.04	0.6	0	
0.08	0.6	0	
0.12	0.6	0	
0.16	0.6	0	
0.2	0.6	0	
0.24	0.6	0	
0.28	0.6	0	
0.32	0.6	0	
0.36	0.6	0	
0.4	0.6	0	
0	0.64	0	
0.04	0.64	0	
0.08	0.64	0	
0.12	0.64	0	
0.16	0.64	0	
0.2	0.64	0	
0.24	0.64	0	
0.28	0.64	0	
0.32	0.64	0	
0.36	0.64	0	
0.4	0.64	0	
0	0.68	0	
0.04	0.68	0	
0.08	0.68	0	
0.12	0.68	0	
0.16	0.68	0	
0.2	0.68	0	
0.24	0.68	0	
0.28	0.68	0	
0.32	0.68	0	
0.36	0.68	0	
0.4	0.68	0	
0	0.72	0	
0.04	0.72	0	
0.08	0.72	0	
0.12	0.72	0	
0.16	0.72	0	
0.2	0.72	0	
0.24	0.72	0	
0.28	0.72	0	
0.32	0.72	0	
0.36	0.72	0	
0.4	0.72	0	
0	0.76	0	
0.04	0.76	0	
0.08	0.76	0	
0.12	0.76	0	
0.16	0.76	0	
0.2	0.76	0	
0.24	0.76	0	
0.28	0.76	0	
0.32	0.76	0	
0.36	0.76	0	
0.4	0.76	0	
0	0.8	0	
0.04	0.8	0	
0.08	0.8	0	
0.12	0.8	0	
0.16	0.8	0	
0.2	0.8	0	
0.24	0.8	0	
0.28	0.8	0	
0.32	0.8	0	
0.36	0.8	0	
0.4	0.8	0	
0	0.84	0	
0.04	0.84	0	
0.08	0.84	0	
0.12	0.84	0	
0.16	0.84	0	
0.2	0.84	0	
0.24	0.84	0	
0.28	0.84	0	
0.32	0.84	0	
0.36	0.84	0	
0.4	0.84	0	
0	0.88	0	
0.04	0.88	0	
0.08	0.88	0	
0.12	0.88	0	
0.16	0.88	0	
0.2	0.88	0	
0.24	0.88	0	
0.28	0.88	0	
0.32	0.88	0	
0.36	0.88	0	
0.4	0.88	0	
0	0.92	0	
0.04	0.92	0	
0.08	0.92	0	
0.12	0.92	0	
0.16	0.92	0	
0.2	0.92	0	
0.24	0.92	0	
0.28	0.92	0	
0.32	0.92	0	
0.36	0.92	0	
0.4	0.92	0	
0	0.96	0	
0.04	0.96	0	
0.08	0.96	0	
0.12	0.96	0	
0.16	0.96	0	
0.2	0.96	0	
0.24	0.96	0	
0.28	0.96	0	
0.32	0.96	0	
0.36	0.96	0	
0.4	0.96	0	
0	1	0	
0.04	1	0	
0.08	1	0	
0.12	1	0	
0.16	1	0	
0.2	1	0	
0.24	1	0	
0.28	1	0	
0.32	1	0	
0.36	1	0	
0.4	1	0	
0	0	0.04	
0.04	0	0.04	
0.08	0	0.04	
0.12	0	0.04	
0.16	0	0.04	
0.2	0	0.04	
0.24	0	0.04	
0.28	0	0.04	
0.32	0	0.04	
0.36	0	0.04	
0.4	0	0.04	
0	0.04	0.04	
0.04	0.04	0.04	
0.08	0.04	0.04	
0.12	0.04	0.04	
0.16	0.04	0.04	
0.2	0.04	0.04	
0.24	0.04	0.04	
0.28	0.04	0.04	
0.32	0.04	0.04	
0.36	0.04	0.04	
0.4	0.04	0.04	
0	0.08	0.04	
0.04	0.08	0.04	
0.08	0.08	0.04	
0.12	0.08	0.04	
0.16	0.08	0.04	
0.2	0.08	0.04	
0.24	0.08	0.04	
0.28	0.08	0.04	
0.32	0.08	0.04	
0.36	0.08	0.04	
0.4	0.08	0.04	
0	0.12	0.04	
0.04	0.12	0.04	
0.08	0.12	0.04	
0.12	0.12	0.04	
0.16	0.12	0.04	
0.2	0.12	0.04	
0.24	0.12	0.04	
0.28	0.12	0.04	
0.32	0.12	0.04	
0.36	0.12	0.04	
0.4	0.12	0.04	
0	0.16	0.04	
0.04	0.16	0.04	
0.08	0.16	0.04	
0.12	0.16	0.04	
0.16	0.16	0.04	
0.2	0.16	0.04	
0.24	0.16	0.04	
0.28	0.16	0.04	
0.32	0.16	0.04	
0.36	0.16	0.04	
0.4	0.16	0.04	
0	0.2	0.04	
0.04	0.2	0.04	
0.08	0.2	0.04	
0.12	0.2	0.04	
0.16	0.2	0.04	
0.2	0.2	0.04	
0.24	0.2	0.04	
0.28	0.2	0.04	
0.32	0.2	0.04	
0.36	0.2	0.04	
0.4	0.2	0.04	
0	0.24	0.04	
0.04	0.24	0.04	
0.08	0.24	0.04	
0.12	0.24	0.04	
0.16	0.24	0.04	
0.2	0.24	0.04	
0.24	0.24	0.04	
0.28	0.24	0.04	
0.32	0.24	0.04	
0.36	0.24	0.04	
0.4	0.24	0.04	
0	0.28	0.04	
0.04	0.28	0.04	
0.08	0.28	0.04	
0.12	0.28	0.04	
0.16	0.28	0.04	
0.2	0.28	0.04	
0.24	0.28	0.04	
0.28	0.28	0.04	
0.32	0.28	0.04	
0.36	0.28	0.04	
0.4	0.28	0.04	
0	0.32	0.04	
0.04	0.32	0.04	
0.08	0.32	0.04	
0.12	0.32	0.04	
0.16	0.32	0.04	
0.2	0.32	0.04	
0.24	0.32	0.04	
0.28	0.32	0.04	
0.32	0.32	0.04	
0.36	0.32	0.04	
0.4	0.32	0.04	
0	0.36	0.04	
0.04	0.36	0.04	
0.08	0.36	0.04	
0.12	0.36	0.04	
0.16	0.36	0.04	
0.2	0.36	0.04	
0.24	0.36	0.04	
0.28	0.36	0.04	
0.32	0.36	0.04	
0.36	0.36	0.04	
0.4	0.36	0.04	
0	0.4	0.04	
0.04	0.4	0.04	
0.08	0.4	0.04	
0.12	0.4	0.04	
0.16	0.4	0.04	
0.2	0.4	0.04	
0.24	0.4	0.04	
0.28	0.4	0.04	
0.32	0.4	0.04	
0.36	0.4	0.04	
0.4	0.4	0.04	
0	0.44	0.04	
0.04	0.44	0.04	
0.08	0.44	0.04	
0.12	0.44	0.04	
0.16	0.44	0.04	
0.2	0.44	0.04	
0.24	0.44	0.04	
0.28	0.44	0.04	
0.32	0.44	0.04	
0.36	0.44	0.04	
0.4	0.44	0.04	
0	0.48	0.04	
0.04	0.48	0.04	
0.08	0.48	0.04	
0.12	0.48	0.04	
0.16	0.48	0.04	
0.2	0.48	0.04	
0.24	0.48	0.04	
0.28	0.48	0.04	
0.32	0.48	0.04	
0.36	0.48	0.04	
0.4	0.48	0.04	
0	0.52	0.04	
0.04	0.52	0.04	
0.08	0.52	0.04	
0.12	0.52	0.04	
0.16	0.52	0.04	
0.2	0.52	0.04	
0.24	0.52	0.04	
0.28	0.52	0.04	
0.32	0.52	0.04	
0.36	0.52	0.04	
0.4	0.52	0.04	
0	0.56	0.04	
0.04	0.56	0.04	
0.08	0.56	0.04	
0.12	0.56	0.04	
0.16	0.56	0.04	
0.2	0.56	0.04	
0.24	0.56	0.04	
0.28	0.56	0.04	
0.32	0.56	0.04	
0.36	0.56	0.04	
0.4	0.56	0.04	
0	0.6	0.04	
0.04	0.6	0.04	
0.08	0.6	0.04	
0.12	0.6	0.04	
0.16	0.6	0.04	
0.2	0.6	0.04	
0.24	0.6	0.04	
0.28	0.6	0.04	
0.32	0.6	0.04	
0.36	0.6	0.04	
0.4	0.6	0.04	
0	0.64	0.04	
0.04	0.64	0.04	
0.08	0.64	0.04	
0.12	0.64	0.04	
0.16	0.64	0.04	
0.2	0.64	0.04	
0.24	0.64	0.04	
0.28	0.64	0.04	
0.32	0.64	0.04	
0.36	0.64	0.04	
0.4	0.64	0.04	
0	0.68	0.04	
0.04	0.68	0.04	
0.08	0.68	0.04	
0.12	0.68	0.04	
0.16	0.68	0.04	
0.2	0.68	0.04	
0.24	0.68	0.04	
0.28	0.68	0.04	
0.32	0.68	0.04	
0.36	0.68	0.04	
0.4	0.68	0.04	
0	0.72	0.04	
0.04	0.72	0.04	
0.08	0.72	0.04	
0.12	0.72	0.04	
0.16	0.72	0.04	
0.2	0.72	0.04	
0.24	0.72	0.04	
0.28	0.72	0.04	
0.32	0.72	0.04	
0.36	0.72	0.04	
0.4	0.72	0.04	
0	0.76	0.04	
0.04	0.76	0.04	
0.08	0.76	0.04	
0.12	0.76	0.04	
0.16	0.76	0.04	
0.2	0.76	0.04	
0.24	0.76	0.04	
0.28	0.76	0.04	
0.32	0.76	0.04	
0.36	0.76	0.04	
0.4	0.76	0.04	
0	0.8	0.04	
0.04	0.8	0.04	
0.08	0.8	0.04	
0.12	0.8	0.04	
0.16	0.8	0.04	
0.2	0.8	0.04	
0.24	0.8	0.04	
0.28	0.8	0.04	
0.32	0.8	0.04	
0.36	0.8	0.04	
0.4	0.8	0.04	
0	0.84	0.04	
0.04	0.84	0.04	
0.08	0.84	0.04	
0.12	0.84	0.04	
0.16	0.84	0.04	
0.2	0.84	0.04	
0.24	0.84	0.04	
0.28	0.84	0.04	
0.32	0.84	0.04	
0.36	0.84	0.04	
0.4	0.84	0.04	
0	0.88	0.04	
0.04	0.88	0.04	
0.08	0.88	0.04	
0.12	0.88	0.04	
0.16	0.88	0.04	
0.2	0.88	0.04	
0.24	0.88	0.04	
0.28	0.88	0.04	
0.32	0.88	0.04	
0.36	0.88	0.04	
0.4	0.88	0.04	
0	0.92	0.04	
0.04	0.92	0.04	
0.08	0.92	0.04	
0.12	0.92	0.04	
0.16	0.92	0.04	
0.2	0.92	0.04	
0.24	0.92	0.04	
0.28	0.92	0.04	
0.32	0.92	0.04	
0.36	0.92	0.04	
0.4	0.92	0.04	
0	0.96	0.04	
0.04	0.96	0.04	
0.08	0.96	0.04	
0.12	0.96	0.04	
0.16	0.96	0.04	
0.2	0.96	0.04	
0.24	0.96	0.04	
0.28	0.96	0.04	
0.32	0.96	0.04	
0.36	0.96	0.04	
0.4	0.96	0.04	
0	1	0.04	
0.04	1	0.04	
0.08	1	0.04	
0.12	1	0.04	
0.16	1	0.04	
0.2	1	0.04	
0.24	1	0.04	
0.28	1	0.04	
0.32	1	0.04	
0.36	1	0.04	
0.4	1	0.04	
0	0	0.08	
0.04	0	0.08	
0.08	0	0.08	
0.12	0	0.08	
0.16	0	0.08	
0.2	0	0.08	
0.24	0	0.08	
0.28	0	0.08	
0.32	0	0.08	
0.36	0	0.08	
0.4	0	0.08	
0	0.04	0.08	
0.04	0.04	0.08	
0.08	0.04	0.08	
0.12	0.04	0.08	
0.16	0.04	0.08	
0.2	0.04	0.08	
0.24	0.04	0.08	
0.28	0.04	0.08	
0.32	0.04	0.08	
0.36	0.04	0.08	
0.4	0.04	0.08	
0	0.08	0.08	
0.04	0.08	0.08	
0.08	0.08	0.08	
0.12	0.08	0.08	
0.16	0.08	0.08	
0.2	0.08	0.08	
0.24	0.08	0.08	
0.28	0.08	0.08	
0.32	0.08	0.08	
0.36	0.08	0.08	
0.4	0.08	0.08	
0	0.12	0.08	
0.04	0.12	0.08	
0.08	0.12	0.08	
0.12	0.12	0.08	
0.16	0.12	0.08	
0.2	0.12	0.08	
0.24	0.12	0.08	
0.28	0.12	0.08	
0.32	0.12	0.08	
0.36	0.12	0.08	
0.4	0.12	0.08	
0	0.16	0.08	
0.04	0.16	0.08	
0.08	0.16	0.08	
0.12	0.16	0.08	
0.16	0.16	0.08	
0.2	0.16	0.08	
0.24	0.16	0.08	
0.28	0.16	0.08	
0.32	0.16	0.08	
0.36	0.16	0.08	
0.4	0.16	0.08	
0	0.2	0.08	
0.04	0.2	0.08	
0.08	0.2	0.08	
0.12	0.2	0.08	
0.16	0.2	0.08	
0.2	0.2	0.08	
0.24	0.2	0.08	
0.28	0.2	0.08	
0.32	0.2	0.08	
0.36	0.2	0.08	
0.4	0.2	0.08	
0	0.24	0.08	
0.04	0.24	0.08	
0.08	0.24	0.08	
0.12	0.24	0.08	
0.16	0.24	0.08	
0.2	0.24	0.08	
0.24	0.24	0.08	
0.28	0.24	0.08	
0.32	0.24	0.08	
0.36	0.24	0.08	
0.4	0.24	0.08	
0	0.28	0.08	
0.04	0.28	0.08	
0.08	0.28	0.08	
0.12	0.28	0.08	
0.16	0.28	0.08	
0.2	0.28	0.08	
0.24	0.28	0.08	
0.28	0.28	0.08	
0.32	0.28	0.08	
0.36	0.28	0.08	
0.4	0.28	0.08	
0	0.32	0.08	
0.04	0.32	0.08	
0.08	0.32	0.08	
0.12	0.32	0.08	
0.16	0.32	0.08	
0.2	0.32	0.08	
0.24	0.32	0.08	
0.28	0.32	0.08	
0.32	0.32	0.08	
0.36	0.32	0.08	
0.4	0.32	0.08	
0	0.36	0.08	
0.04	0.36	0.08	
0.08	0.36	0.08	
0.12	0.36	0.08	
0.16	0.36	0.08	
0.2	0.36	0.08	
0.24	0.36	0.08	
0.28	0.36	0.08	
0.32	0.36	0.08	
0.36	0.36	0.08	
0.4	0.36	0.08	
0	0.4	0.08	
0.04	0.4	0.08	
0.08	0.4	0.08	
0.12	0.4	0.08	
0.16	0.4	0.08	
0.2	0.4	0.08	
0.24	0.4	0.08	
0.28	0.4	0.08	
0.32	0.4	0.08	
0.36	0.4	0.08	
0.4	0.4	0.08	
0	0.44	0.08	
0.04	0.44	0.08	
0.08	0.44	0.08	
0.12	0.44	0.08	
0.16	0.44	0.08	
0.2	0.44	0.08	
0.24	0.44	0.08	
0.28	0.44	0.08	
0.32	0.44	0.08	
0.36	0.44	0.08	
0.4	0.44	0.08	
0	0.48	0.08	
0.04	0.48	0.08	
0.08	0.48	0.08	
0.12	0.48	0.08	
0.16	0.48	0.08	
0.2	0.48	0.08	
[...]
POINT_DATA	14586
VECTORS u float
-2.31827e-013	-1.03964e-013	1.34825e-014	
-1.68165e-014	-1.9224e-014	-6.00728e-015	
-5.31831e-015	-3.76593e-014	-1.24788e-014	
-6.28788e-021	-1.64415e-020	-2.53917e-021	
-1.3388e-021	3.57924e-021	1.31512e-021	
4.12632e-024	-2.20683e-025	-3.57194e-024	
-3.20075e-027	3.10179e-027	1.74292e-026	
5.4082e-028	3.54237e-028	3.0283e-028	
2.91938e-028	5.44986e-029	-6.29956e-029	
5.73273e-031	-1.81577e-031	-4.93555e-031	
1.22074e-032	-2.12924e-032	-4.38676e-033	
1.1588e-014	-1.97366e-014	4.10128e-014	
-1.27502e-015	-2.20792e-015	-8.17785e-017	
5.27316e-015	9.33012e-015	1.62302e-015	
1.2633e-021	2.08797e-021	-1.18906e-022	
-1.00647e-022	4.82217e-022	2.113e-022	
2.21317e-025	-1.0187e-024	2.40376e-025	
-3.8917e-027	-1.43546e-027	1.11071e-026	
1.33876e-028	1.09169e-028	5.49461e-029	
8.14457e-029	6.02987e-032	-3.11547e-029	
7.03398e-031	-1.10473e-032	-6.73336e-031	
2.55998e-032	-2.108e-033	-1.768e-032	
-7.99445e-016	-2.26976e-015	2.33321e-015	
1.95355e-015	1.97212e-015	1.55129e-015	
-5.47209e-019	-1.1421e-018	5.54668e-019	
-5.84173e-021	-4.78445e-021	1.1666e-021	
4.53039e-023	6.40009e-023	-3.85655e-024	
5.34636e-025	1.30574e-025	-3.19184e-025	
4.72393e-027	-5.32737e-027	-1.32311e-027	
-1.72174e-027	-8.31906e-028	1.57609e-027	
-5.42296e-030	1.63673e-030	2.41879e-030	
6.07093e-031	2.51831e-031	-5.02461e-031	
2.83929e-032	-9.63125e-034	-2.21317e-032	
1.04132e-017	-2.18717e-016	1.95526e-016	
-3.9676e-017	-9.0764e-017	8.66034e-017	
-3.65343e-019	-3.54916e-019	2.6915e-019	
1.40479e-021	4.21837e-021	-2.10419e-022	
2.80265e-023	-1.37905e-023	-1.35371e-024	
1.89882e-025	8.89939e-026	-1.56922e-025	
2.02112e-026	1.35398e-027	-1.93188e-026	
-2.57803e-028	-1.15356e-028	2.66103e-028	
-7.36801e-033	-8.21887e-033	1.24614e-032	
-7.31235e-033	-2.73165e-032	4.16164e-032	
3.11267e-033	6.53881e-033	-1.4015e-033	
2.85157e-019	-7.22081e-019	5.83712e-019	
-9.25378e-020	-5.88114e-019	4.79701e-019	
-6.57912e-020	-9.53531e-020	6.65093e-020	
-3.81025e-022	-3.70863e-022	3.13012e-022	
7.00902e-024	6.51249e-024	-6.02197e-024	
5.94532e-026	9.768e-026	-5.56693e-026	
3.15807e-028	2.56125e-028	-1.42823e-028	
-3.42185e-028	4.33534e-028	2.88946e-028	
-3.96513e-033	1.65022e-033	3.11558e-033	
-3.32939e-033	-2.63276e-033	7.64255e-033	
-1.50556e-033	5.58496e-035	6.35448e-034	
-1.76506e-021	1.21957e-020	-1.13759e-020	
1.79631e-021	3.06631e-021	-2.49214e-021	
7.14696e-026	-1.81217e-025	-3.81047e-026	
-1.73065e-025	-6.85483e-025	1.94768e-026	
4.14804e-025	2.07015e-025	-3.71131e-025	
-1.3713e-026	-1.35749e-026	1.10176e-026	
1.07056e-029	-1.65396e-028	1.30272e-028	
-2.24601e-028	-4.85641e-028	4.1756e-028	
-1.66057e-033	-2.286e-034	5.16601e-034	
4.27839e-034	-3.19842e-034	2.20485e-034	
-2.98463e-033	-1.31032e-033	2.01333e-033	
-7.6659e-027	2.75718e-026	-2.71316e-026	
1.19441e-026	2.76554e-026	-1.00646e-026	
-1.66267e-026	1.69817e-025	-5.33012e-026	
-1.00652e-025	2.06668e-025	-1.28141e-025	
-1.78069e-027	2.35974e-027	3.40757e-027	
5.85741e-030	-6.87759e-029	7.98259e-029	
-4.44155e-029	-3.22012e-029	3.5367e-029	
3.78917e-030	2.64186e-032	-2.54277e-030	
-3.33021e-034	-2.98568e-034	9.42092e-035	
-3.7147e-035	-2.10881e-035	2.06325e-035	
-4.81686e-035	-5.59469e-035	3.97598e-035	
8.22549e-029	-4.74552e-028	1.82514e-028	
4.53617e-028	-1.38712e-027	5.1162e-028	
-4.92562e-029	-4.68248e-028	-8.83089e-029	
-2.26036e-028	-3.8842e-028	4.29533e-028	
-2.63957e-027	-4.20589e-027	1.78358e-027	
-7.5153e-031	-3.31079e-032	2.66936e-030	
-8.67224e-033	1.71644e-033	4.29257e-034	
3.09046e-033	1.49981e-033	-1.58897e-033	
6.85486e-036	-7.06158e-036	1.35876e-035	
-2.56433e-035	-2.57045e-036	9.73049e-036	
-1.0065e-035	-1.25061e-036	7.43684e-036	
-3.22488e-032	-1.00447e-033	-8.86588e-033	
-4.32016e-032	4.85967e-032	1.02491e-032	
-1.88616e-030	7.67106e-030	-2.83636e-030	
3.34714e-031	2.0985e-030	-1.41424e-030	
4.85064e-030	6.0055e-030	-3.51604e-030	
-1.33537e-031	-1.0108e-030	1.01611e-030	
-1.12465e-034	3.76293e-034	-1.03495e-034	
8.21351e-035	2.50506e-034	-1.31484e-034	
4.43958e-034	8.00635e-034	-4.05518e-034	
-2.03707e-036	9.36897e-035	2.48048e-034	
-1.39791e-034	8.83408e-035	2.93994e-034	
-2.60413e-032	-8.68131e-033	-2.82883e-032	
-6.27736e-032	3.98118e-032	3.57669e-032	
-1.1162e-032	2.38581e-032	-1.70533e-032	
-7.70452e-033	6.59577e-032	-6.23954e-032	
6.94394e-034	4.48857e-032	1.94482e-032	
-7.4528e-032	1.91329e-031	2.40188e-032	
-1.76652e-032	6.43046e-033	1.88444e-032	
-6.54047e-034	1.12771e-034	1.66099e-033	
-2.44453e-034	1.34851e-034	8.10844e-034	
-1.10094e-034	5.41147e-035	5.15127e-034	
-2.65669e-034	4.21589e-035	4.47688e-034	
-4.13826e-034	-3.9013e-035	-1.48788e-034	
1.21552e-033	-2.38512e-034	1.39404e-033	
-3.15786e-034	-1.06157e-033	3.93137e-033	
2.02422e-033	-3.94841e-033	5.75709e-033	
1.68312e-032	-5.89314e-032	2.22825e-032	
-6.35187e-033	-9.29218e-032	5.45236e-032	
-6.55753e-033	-7.72617e-033	9.0991e-033	
-3.33881e-034	-4.21288e-034	1.35981e-033	
-2.55148e-034	-2.14851e-034	7.74139e-034	
-8.8994e-035	-1.14096e-034	4.55692e-034	
-2.32313e-034	-6.47204e-035	4.11403e-034	
-2.77958e-036	3.63861e-037	2.60206e-036	
1.09744e-035	2.04951e-035	2.2369e-035	
-7.68668e-037	3.07362e-034	2.87061e-033	
-5.86602e-034	6.20961e-034	2.34682e-033	
-6.72834e-034	4.44053e-034	1.05071e-033	
1.78032e-035	-9.79634e-035	5.36331e-034	
5.76912e-035	-3.97139e-034	6.40733e-034	
4.52637e-037	-4.42765e-037	1.09714e-036	
-1.00218e-036	-2.92055e-036	3.70316e-036	
1.97501e-036	-9.7568e-035	1.40069e-034	
-4.84247e-035	-4.97538e-035	1.55918e-034	
3.39286e-036	-7.02974e-036	3.21793e-036	
3.69977e-036	-7.02706e-036	8.30226e-036	
4.70407e-035	-7.9934e-034	2.43043e-033	
-3.45282e-034	-4.30443e-034	2.23207e-033	
-5.82643e-034	-1.54093e-034	1.34682e-033	
-9.32618e-036	-7.47634e-036	-2.54635e-036	
7.86332e-035	-8.69577e-036	-3.17228e-035	
2.98394e-037	-3.29749e-037	2.47231e-037	
2.8869e-038	-7.92332e-037	3.79081e-037	
1.68731e-035	-2.12466e-035	2.94353e-035	
-5.37718e-036	-5.62443e-035	8.31922e-035	
-2.77001e-037	-4.45065e-038	2.65108e-037	
1.55263e-036	1.10757e-036	1.63806e-036	
-3.54797e-035	-6.7715e-034	7.82934e-034	
-2.34937e-035	-7.19342e-035	-2.53329e-035	
-1.92564e-034	-2.29418e-034	1.90232e-035	
7.19146e-037	2.13512e-036	-1.60484e-036	
3.06012e-035	1.45951e-035	-1.26443e-035	
3.12642e-036	-1.14596e-034	-1.28655e-034	
1.40094e-035	-1.49353e-035	-2.26439e-035	
3.28392e-036	-3.82958e-036	5.8411e-036	
-1.98799e-036	-2.32228e-036	1.96083e-035	
4.05589e-034	1.6033e-033	2.55258e-033	
4.44237e-035	1.31086e-033	1.64228e-033	
-8.68548e-035	1.57117e-033	1.40581e-033	
-1.30143e-035	-1.86692e-035	4.78333e-036	
-5.95545e-035	-4.14456e-035	4.04881e-035	
-1.00785e-035	-4.88204e-036	1.69071e-036	
-1.68124e-034	-6.796e-035	-3.62809e-034	
8.76403e-035	-1.07218e-034	-4.85001e-034	
9.01349e-035	-6.59769e-035	-1.5732e-034	
1.82338e-035	-7.18452e-036	-3.3764e-036	
-3.05572e-036	-1.61864e-036	1.96402e-035	
2.29895e-033	1.83065e-033	5.2795e-033	
2.7859e-034	2.01597e-033	4.60592e-033	
-3.31222e-034	2.6132e-033	5.47282e-033	
-1.16965e-033	1.91674e-033	3.32199e-033	
-9.47592e-037	-2.88406e-036	1.58527e-036	
-4.14402e-036	-1.61988e-036	1.6765e-036	
-3.36131e-035	2.12064e-034	-1.11391e-034	
-6.73658e-036	1.90506e-034	-3.05537e-034	
8.36807e-035	-1.21095e-034	-3.02258e-034	
9.86156e-035	-7.55172e-035	-1.23043e-034	
1.20717e-035	-1.12358e-035	-1.31556e-035	
2.42614e-033	1.0887e-034	5.33099e-033	
9.27834e-034	3.6401e-034	5.52613e-033	
-1.64793e-034	2.63898e-033	1.02219e-032	
-1.63243e-033	2.34205e-033	7.23917e-033	
-2.65959e-033	1.0518e-033	2.86092e-033	
-2.49897e-035	5.43644e-035	4.89135e-035	
4.70548e-034	1.32602e-034	5.443e-034	
-5.20928e-034	4.45685e-034	4.19795e-034	
-3.33427e-034	-2.63777e-034	-6.99079e-034	
-4.15641e-034	-1.14475e-033	-1.4532e-033	
1.64081e-034	-2.7797e-033	-2.83597e-033	
1.21156e-033	-2.11305e-033	2.51216e-033	
2.34662e-033	-1.5263e-033	4.36539e-033	
1.17961e-033	-9.06974e-034	1.03823e-032	
-1.85799e-033	5.46349e-034	9.23445e-033	
-3.47851e-033	7.06318e-034	4.53978e-033	
-6.76606e-034	-2.89326e-035	1.41704e-034	
-1.18565e-034	-5.66638e-034	-4.42048e-034	
6.63845e-035	-7.24748e-034	-3.54997e-034	
-1.23653e-033	1.63195e-036	-1.7893e-033	
-1.52616e-033	-2.33772e-034	-4.64208e-033	
1.19579e-033	-1.11478e-033	-6.9845e-033	
-1.62719e-035	1.08951e-035	2.78631e-036	
5.62597e-036	2.43512e-036	6.31939e-036	
4.49726e-035	-5.67741e-035	8.21968e-035	
1.73018e-034	-2.00727e-033	8.32524e-033	
-2.98813e-033	-5.33909e-034	5.4168e-033	
-7.03679e-034	4.3988e-034	1.10063e-033	
-7.28585e-034	6.0466e-034	-2.16905e-034	
1.48733e-034	5.51349e-034	-7.03596e-034	
-4.16182e-034	4.59895e-034	-8.2217e-034	
-2.43158e-033	1.11207e-033	-3.47801e-033	
7.38442e-034	1.09141e-033	-6.84363e-033	
5.35858e-036	-2.4735e-035	7.67428e-036	
7.82697e-036	-1.3674e-035	7.29269e-036	
7.75197e-036	-1.89062e-035	7.4568e-036	
-7.8993e-036	-4.99925e-035	2.97996e-035	
-6.5195e-036	-6.298e-036	6.93569e-037	
-1.63628e-034	-1.02758e-033	2.3522e-034	
-3.10196e-035	-4.82487e-035	-7.25818e-036	
2.02945e-034	-1.34016e-034	-4.49165e-035	
-4.69178e-036	-6.73124e-036	-7.39173e-036	
-1.06729e-035	-1.30292e-035	-4.04153e-035	
1.94739e-035	-1.89922e-035	-5.01504e-035	
-3.65487e-036	2.81238e-036	-4.22071e-036	
5.16994e-036	6.03002e-036	7.80258e-036	
-7.73903e-036	6.82568e-037	7.66965e-036	
-3.04645e-036	-7.11862e-036	6.69481e-037	
-1.43626e-036	-3.1144e-036	1.00489e-036	
-2.49891e-037	8.81508e-037	-4.49848e-037	
-8.39036e-036	1.06028e-034	-4.32208e-035	
6.24853e-035	2.51223e-034	-1.34529e-034	
-9.07935e-036	1.81565e-035	-7.08194e-036	
-8.81826e-036	2.52308e-035	-1.97812e-035	
5.24218e-035	9.9059e-035	-1.93052e-034	
2.49565e-035	5.29486e-036	8.12416e-036	
-2.11796e-035	1.70006e-035	-7.7896e-036	
-2.33421e-036	-1.23835e-036	2.76546e-036	
4.52023e-037	-2.58037e-037	9.42709e-037	
5.1934e-037	-9.03993e-038	5.61226e-039	
-5.49879e-037	-4.70471e-037	1.20124e-037	
3.79551e-037	2.38947e-036	-1.94142e-036	
-1.36287e-035	-1.13579e-036	-3.46686e-036	
2.60596e-035	-6.57505e-035	5.59312e-035	
3.27954e-036	-2.47789e-035	1.65744e-035	
-5.79364e-035	3.87103e-036	9.83291e-038	
1.16537e-035	-3.50689e-036	3.50184e-036	
-6.63282e-036	-7.09902e-036	-3.10519e-037	
-1.29877e-035	-8.86957e-036	-4.05158e-036	
1.46887e-036	1.24339e-037	1.66487e-036	
-3.03187e-035	-5.88657e-036	-8.81313e-035	
1.21318e-035	-4.44023e-035	-1.1146e-034	
3.04969e-035	-9.20234e-036	-5.37977e-035	
-1.79186e-034	-3.16009e-035	-1.82999e-034	
-7.96075e-035	-1.58445e-034	-3.79874e-034	
2.8802e-035	4.18787e-035	-4.42784e-035	
1.1088e-035	5.73069e-035	-1.76223e-035	
2.17731e-036	-8.02017e-036	-3.60798e-036	
-2.63218e-036	2.0265e-036	5.45474e-037	
-1.614e-036	9.42146e-037	-1.55161e-036	
5.04982e-036	1.10744e-035	-8.92598e-037	
-3.42402e-037	3.04551e-035	-8.44428e-037	
1.34918e-037	4.27698e-035	-9.65726e-035	
2.96551e-035	7.91114e-036	-3.68097e-035	
-1.63002e-034	1.57673e-036	-1.55213e-034	
-6.84322e-034	-1.37441e-034	-9.55868e-034	
-7.9221e-034	-5.24826e-034	-2.48461e-033	
5.31633e-034	-8.65425e-034	-3.57731e-033	
1.18558e-035	-7.14364e-036	-1.73054e-035	
4.43113e-037	-1.29141e-036	-1.76494e-037	
1.05265e-036	4.0306e-036	-1.01647e-036	
1.25317e-036	-5.37665e-038	-6.10476e-037	
7.73577e-036	-7.1181e-036	-6.38558e-036	
-3.55619e-036	1.65865e-035	-2.04243e-035	
3.60321e-037	1.05349e-036	-1.53596e-035	
-1.23744e-034	1.89087e-035	-1.0936e-034	
-9.75267e-034	6.79776e-036	-1.07426e-033	
-1.07755e-033	-7.73119e-035	-2.85307e-033	
4.57979e-034	-5.41018e-035	-3.98586e-033	
7.88688e-036	-1.08284e-036	-1.60582e-035	
-3.53765e-036	-5.28728e-037	-1.16159e-036	
4.94899e-036	3.4722e-036	-3.54435e-037	
-7.69937e-036	1.61587e-035	-5.30768e-036	
3.03509e-036	-8.1254e-037	-2.98884e-036	
-1.94344e-036	1.73519e-036	-1.34618e-036	
-4.54755e-036	8.80527e-036	-9.7996e-036	
-1.43144e-034	7.14847e-035	-1.18525e-034	
-1.01413e-033	3.36156e-034	-1.13587e-033	
-1.33789e-033	1.15029e-033	-3.27363e-033	
-7.37847e-035	1.64663e-033	-4.36773e-033	
-0.691235	-0.0121586	0.00369238	
0.00167514	0.0013848	0.00157844	
1.25672e-006	-6.35013e-005	-5.42414e-005	
7.03631e-011	-6.19409e-011	-4.11463e-012	
-4.94528e-012	9.14389e-012	1.56973e-012	
-1.22666e-015	6.17255e-016	2.56219e-015	
-2.51461e-015	1.64356e-017	1.16955e-015	
-1.28095e-017	-2.61088e-017	-8.29679e-017	
1.74763e-019	2.84197e-019	4.85363e-019	
7.48246e-021	-2.67412e-022	3.77707e-021	
4.50989e-022	-5.24351e-022	1.5939e-023	
0.00868572	0.0313668	0.0679931	
-0.000364354	-0.000388758	0.000127553	
2.34048e-005	9.28154e-005	2.65894e-005	
-5.6759e-012	6.66003e-011	2.12066e-011	
-4.7723e-013	-1.06883e-013	-1.49333e-012	
-9.00846e-016	-4.86544e-016	1.00075e-015	
-1.19412e-015	-1.67935e-016	4.34852e-016	
-9.94333e-018	-1.15514e-017	-3.12213e-017	
-3.21275e-019	-2.70733e-019	1.36377e-019	
1.27215e-020	-5.41902e-021	-1.97996e-021	
3.5035e-022	1.35662e-022	8.4267e-023	
-8.68888e-005	0.000250863	-0.000118195	
0.000106454	0.000101747	1.80825e-006	
-1.58239e-009	-3.6261e-009	1.13432e-009	
-3.66123e-011	-3.84737e-011	4.70916e-012	
-7.09347e-014	2.00151e-013	-3.65783e-013	
2.16768e-014	8.28726e-015	-1.67967e-014	
-8.37953e-017	-1.64703e-016	1.09709e-016	
-1.96563e-017	-1.18344e-017	3.1138e-018	
-1.38172e-019	-3.92976e-021	1.38821e-020	
1.03571e-020	5.78573e-021	-1.20231e-021	
2.59865e-022	-1.46477e-022	5.36385e-023	
4.34032e-008	-1.39054e-006	-7.76058e-007	
-2.95849e-008	-9.55675e-007	2.65346e-008	
-1.88704e-009	-1.87244e-009	1.33486e-010	
8.94179e-012	1.17864e-011	5.20936e-013	
1.1869e-013	-1.71684e-013	1.90444e-014	
1.22292e-013	6.1871e-014	-5.89809e-014	
-5.13025e-018	-1.8269e-016	-1.54537e-016	
-7.18977e-021	-1.09462e-020	4.5234e-021	
-7.55193e-022	1.52241e-022	2.45077e-022	
-6.63587e-022	2.59607e-022	7.48717e-022	
1.33654e-022	1.49069e-022	-2.67842e-024	
5.50187e-009	-1.38482e-008	2.79177e-009	
-1.95122e-011	-2.39599e-011	2.5897e-013	
-8.89603e-012	-4.94198e-012	-3.56893e-013	
-2.74509e-013	-3.99097e-013	-4.0351e-013	
1.10836e-013	1.18723e-013	-2.02326e-015	
-3.78422e-016	-6.40736e-017	-1.59501e-016	
1.29531e-016	9.11548e-017	-5.73199e-017	
-2.77878e-020	4.84068e-019	-1.37142e-019	
-3.78516e-022	-7.28987e-022	1.04451e-021	
-1.33409e-022	7.48467e-024	1.81625e-022	
-2.40516e-024	2.88415e-024	-1.86276e-024	
-1.2404e-011	1.2103e-010	3.30991e-012	
-1.23433e-013	1.3555e-013	-1.09059e-013	
-1.49129e-014	1.9992e-014	-5.38983e-014	
1.50209e-013	2.00449e-013	-1.19391e-013	
1.76515e-017	-2.75339e-017	3.11002e-017	
-8.9772e-017	-1.08624e-016	9.55618e-017	
2.93943e-018	1.05001e-018	-1.98069e-018	
-3.84824e-018	-4.50967e-018	-2.84195e-018	
-2.04851e-023	4.60489e-024	1.30814e-023	
1.67583e-024	-6.93133e-025	1.41447e-025	
-2.85607e-024	-3.38639e-024	5.23713e-025	
-3.74408e-017	8.09371e-017	-4.65584e-017	
4.81308e-017	1.11206e-016	-1.43547e-017	
1.06712e-016	2.90295e-016	-4.85755e-017	
-2.31024e-016	2.4001e-017	2.02931e-016	
6.50261e-020	1.82257e-018	-5.1727e-019	
1.49206e-018	-1.33053e-019	-8.55095e-019	
-6.45075e-019	-5.94454e-019	-1.22062e-019	
6.88563e-021	-8.52096e-022	-5.20389e-021	
1.35765e-024	-7.91876e-024	-5.98088e-024	
-2.31743e-025	-6.86843e-026	1.83953e-025	
-1.23769e-025	-1.05184e-025	7.91543e-026	
8.44744e-019	-1.98246e-018	-4.76816e-019	
1.31003e-018	-4.53897e-018	-2.99618e-019	
-1.06604e-018	-1.79827e-018	-8.47975e-019	
1.89415e-018	-3.7954e-019	-1.45815e-018	
-5.19504e-018	-8.21599e-018	1.12282e-019	
3.04419e-019	2.18964e-019	-2.84544e-019	
-2.02746e-023	4.70299e-023	-9.48428e-023	
1.78128e-023	1.87243e-023	-3.31884e-023	
1.10782e-023	-3.8969e-024	-9.6439e-024	
-1.19255e-025	-2.86454e-026	1.7631e-026	
-2.50143e-026	-4.03819e-027	1.3654e-026	
1.03172e-022	-4.51889e-022	3.79708e-022	
1.98122e-021	1.95595e-021	1.07045e-020	
-5.52618e-021	1.35513e-020	8.67503e-021	
4.66446e-022	-5.48624e-021	8.53881e-021	
7.46114e-021	5.84129e-021	5.56676e-021	
-3.03554e-020	6.45027e-020	8.91724e-021	
-2.49989e-023	-3.57042e-025	-6.07001e-024	
-6.26021e-024	-5.02414e-024	4.99787e-024	
1.12821e-024	1.86783e-024	-5.17107e-025	
6.62954e-023	1.69745e-024	-6.61351e-023	
-3.78097e-025	1.28136e-024	1.97582e-024	
2.8515e-022	-5.29832e-023	-5.09405e-023	
1.46247e-022	8.26549e-023	6.88035e-022	
-1.55318e-022	-4.43505e-023	2.48244e-022	
2.01268e-022	9.21418e-022	9.38218e-023	
3.55811e-021	-4.91783e-021	5.67346e-021	
-4.29405e-021	-1.29095e-020	1.25762e-020	
-5.19641e-022	-5.81778e-022	4.87915e-022	
3.74967e-023	2.25285e-023	-1.5071e-022	
2.5101e-023	1.20081e-022	-1.38108e-022	
3.2521e-023	4.223e-023	-3.55916e-023	
-1.23192e-024	7.42457e-025	2.59043e-024	
7.19408e-025	-3.17987e-025	2.26788e-025	
2.08064e-024	-5.62081e-025	9.99722e-025	
-3.83648e-024	-4.73176e-024	7.79021e-023	
2.41591e-022	-4.9251e-022	9.30717e-024	
3.33271e-023	-1.17762e-022	-5.67404e-024	
-5.57363e-023	1.0357e-023	-1.21739e-022	
-8.66905e-023	9.78125e-023	-1.75137e-022	
4.48231e-023	8.76666e-023	-8.48631e-023	
7.30646e-024	9.13997e-024	-5.15345e-024	
-3.28015e-024	-9.40934e-025	4.58281e-024	
-1.57965e-024	-6.35426e-025	2.9324e-024	
1.69748e-025	-4.3854e-026	1.21871e-025	
9.81705e-026	1.56754e-026	9.16707e-026	
1.1055e-025	-2.64274e-024	7.88827e-023	
-2.77576e-023	1.96705e-023	4.98469e-023	
-4.4042e-024	8.53068e-024	2.77599e-024	
1.37712e-024	-1.80022e-025	1.25152e-024	
7.60032e-025	-2.85069e-024	5.45582e-024	
-4.00711e-027	1.79348e-027	1.14629e-029	
-4.87307e-027	-2.09978e-026	6.10335e-027	
-8.81261e-027	-2.10496e-025	1.23415e-025	
-6.26488e-025	-1.19908e-024	1.67109e-024	
1.44352e-026	-1.32411e-026	6.70554e-027	
6.13975e-027	4.98974e-026	8.46775e-027	
2.00139e-023	-1.17855e-023	5.30952e-023	
-1.1328e-023	-5.2974e-024	6.33493e-023	
-2.07357e-023	4.86293e-025	1.93703e-023	
3.02777e-026	-2.49061e-026	-7.2912e-027	
-5.16536e-026	3.2286e-026	3.16375e-026	
-4.49948e-028	-3.24553e-027	3.24935e-028	
4.19158e-029	-6.67082e-028	3.06766e-027	
-5.34838e-028	-9.4196e-027	2.05573e-026	
-1.56131e-025	-6.84388e-025	5.28021e-025	
4.70516e-027	1.59952e-027	8.47363e-027	
-3.29033e-027	-1.26447e-026	-3.2958e-029	
9.47228e-024	1.19643e-024	-8.37392e-025	
8.81765e-025	-8.25839e-025	-7.35183e-025	
-6.32683e-025	-7.04279e-025	-3.87351e-025	
3.80358e-026	2.2125e-026	-7.17671e-029	
-1.22833e-025	-6.69159e-026	1.13386e-025	
3.80254e-026	-6.7248e-027	1.64827e-026	
-3.15359e-026	-3.68013e-027	-5.84353e-027	
9.9415e-026	-2.37075e-027	-7.82531e-027	
-9.76101e-027	-4.62434e-025	1.58455e-025	
2.06839e-023	1.52612e-023	4.55943e-023	
-3.91219e-024	2.24607e-023	-5.57719e-024	
-7.8831e-025	1.38856e-024	3.57727e-025	
-9.2004e-025	-1.42844e-024	1.54936e-025	
-2.02783e-025	2.53367e-025	4.58666e-025	
-5.62156e-027	-6.21215e-027	-2.89392e-026	
-1.5337e-024	-3.3503e-025	-5.39558e-024	
-3.10486e-024	-6.71027e-025	-1.31182e-023	
-1.25839e-026	-5.44102e-027	-1.59374e-027	
4.66342e-026	7.0672e-027	-2.75151e-027	
-1.65716e-025	1.3698e-025	5.29623e-026	
2.34152e-023	4.38131e-023	6.33455e-023	
1.80594e-023	5.42824e-023	5.11247e-023	
-2.64877e-024	7.41057e-023	6.15095e-023	
-1.4113e-023	2.39712e-023	1.32411e-023	
2.63738e-026	2.18059e-026	-4.96093e-026	
2.42119e-029	1.87152e-026	1.43813e-026	
-5.70796e-025	-1.21017e-024	-1.37052e-024	
-9.35372e-025	-2.38399e-024	-3.18807e-024	
1.41991e-024	-3.88931e-024	-4.14924e-024	
2.64624e-025	1.74681e-024	-1.17529e-025	
-1.35102e-025	7.08886e-025	-4.8308e-026	
7.26087e-023	-1.01697e-023	9.96457e-023	
3.02914e-023	1.69492e-023	1.22198e-022	
-1.33081e-023	6.35135e-023	2.33212e-022	
-5.7654e-023	5.63151e-023	9.21406e-023	
-1.44687e-025	-4.90894e-025	3.41591e-025	
-8.96043e-025	1.58945e-025	3.55673e-025	
-7.57194e-025	5.58617e-024	6.76241e-025	
2.13229e-023	-1.31494e-023	1.50494e-023	
-7.30597e-025	-1.69015e-024	-9.14552e-024	
8.99693e-026	-4.44981e-025	-2.49947e-025	
2.98661e-026	-5.80567e-026	-7.46926e-026	
1.54868e-024	-1.12838e-024	1.78384e-026	
4.7158e-024	-2.61812e-024	2.15282e-024	
2.37722e-023	1.13724e-023	2.73412e-022	
-5.85567e-023	1.17838e-023	1.78029e-022	
-4.69773e-024	-1.87986e-024	7.84915e-024	
-3.16357e-024	3.18109e-024	-2.89623e-024	
-4.2774e-024	1.14344e-023	-4.14352e-024	
6.41218e-026	2.50347e-023	-1.31983e-023	
-1.1276e-023	2.20868e-024	-3.05761e-024	
-6.49176e-023	-7.95298e-024	-7.78928e-023	
-1.12858e-023	-3.45545e-023	-1.99543e-022	