# vtk DataFile Version 4.1
vtk output
ASCII
DATASET UNSTRUCTURED_GRID

POINTS	10201	float
0	0	0	
0	1	0	
0	2	0	
0	3	0	
0	4	0	
0	5	0	
0	6	0	
0	7	0	
0	8	0	
0	9	0	
0	10	0	
0	11	0	
0	12	0	
0	13	0	
0	14	0	
0	15	0	
0	16	0	
0	17	0	
0	18	0	
0	19	0	
0	20	0	
0	21	0	
0	22	0	
0	23	0	
0	24	0	
0	25	0	
0	26	0	
0	27	0	
0	28	0	
0	29	0	
0	30	0	
0	31	0	
0	32	0	
0	33	0	
0	34	0	
0	35	0	
0	36	0	
0	37	0	
0	38	0	
0	39	0	
0	40	0	
0	41	0	
0	42	0	
0	43	0	
0	44	0	
0	45	0	
0	46	0	
0	47	0	
0	48	0	
0	49	0	
0	50	0	
0	51	0	
0	52	0	
0	53	0	
0	54	0	
0	55	0	
0	56	0	
0	57	0	
0	58	0	
0	59	0	
0	60	0	
0	61	0	
0	62	0	
0	63	0	
0	64	0	
0	65	0	
0	66	0	
0	67	0	
0	68	0	
0	69	0	
0	70	0	
0	71	0	
0	72	0	
0	73	0	
0	74	0	
0	75	0	
0	76	0	
0	77	0	
0	78	0	
0	79	0	
0	80	0	
0	81	0	
0	82	0	
0	83	0	
0	84	0	
0	85	0	
0	86	0	
0	87	0	
0	88	0	
0	89	0	
0	90	0	
0	91	0	
0	92	0	
0	93	0	
0	94	0	
0	95	0	
0	96	0	
0	97	0	
0	98	0	
0	99	0	
0	100	0	
1	0	0	
1	1	0	
1	2	0	
1	3	0	
1	4	0	
1	5	0	
1	6	0	
1	7	0	
1	8	0	
1	9	0	
1	10	0	
1	11	0	
1	12	0	
1	13	0	
1	14	0	
1	15	0	
1	16	0	
1	17	0	
1	18	0	
1	19	0	
1	20	0	
1	21	0	
1	22	0	
1	23	0	
1	24	0	
1	25	0	
1	26	0	
1	27	0	
1	28	0	
1	29	0	
1	30	0	
1	31	0	
1	32	0	
1	33	0	
1	34	0	
1	35	0	
1	36	0	
1	37	0	
1	38	0	
1	39	0	
1	40	0	
1	41	0	
1	42	0	
1	43	0	
1	44	0	
1	45	0	
1	46	0	
1	47	0	
1	48	0	
1	49	0	
1	50	0	
1	51	0	
1	52	0	
1	53	0	
1	54	0	
1	55	0	
1	56	0	
1	57	0	
1	58	0	
1	59	0	
1	60	0	
1	61	0	
1	62	0	
1	63	0	
1	64	0	
1	65	0	
1	66	0	
1	67	0	
1	68	0	
1	69	0	
1	70	0	
1	71	0	
1	72	0	
1	73	0	
1	74	0	
1	75	0	
1	76	0	
1	77	0	
1	78	0	
1	79	0	
1	80	0	
1	81	0	
1	82	0	
1	83	0	
1	84	0	
1	85	0	
1	86	0	
1	87	0	
1	88	0	
1	89	0	
1	90	0	
1	91	0	
1	92	0	
1	93	0	
1	94	0	
1	95	0	
1	96	0	
1	97	0	
1	98	0	
1	99	0	
1	100	0	
2	0	0	
2	1	0	
2	2	0	
2	3	0	
2	4	0	
2	5	0	
2	6	0	
2	7	0	
2	8	0	
2	9	0	
2	10	0	
2	11	0	
2	12	0	
2	13	0	
2	14	0	
2	15	0	
2	16	0	
2	17	0	
2	18	0	
2	19	0	
2	20	0	
2	21	0	
2	22	0	
2	23	0	
2	24	0	
2	25	0	
2	26	0	
2	27	0	
2	28	0	
2	29	0	
2	30	0	
2	31	0	
2	32	0	
2	33	0	
2	34	0	
2	35	0	
2	36	0	
2	37	0	
2	38	0	
2	39	0	
2	40	0	
2	41	0	
2	42	0	
2	43	0	
2	44	0	
2	45	0	
2	46	0	
2	47	0	
2	48	0	
2	49	0	
2	50	0	
2	51	0	
2	52	0	
2	53	0	
2	54	0	
2	55	0	
2	56	0	
2	57	0	
2	58	0	
2	59	0	
2	60	0	
2	61	0	
2	62	0	
2	63	0	
2	64	0	
2	65	0	
2	66	0	
2	67	0	
2	68	0	
2	69	0	
2	70	0	
2	71	0	
2	72	0	
2	73	0	
2	74	0	
2	75	0	
2	76	0	
2	77	0	
2	78	0	
2	79	0	
2	80	0	
2	81	0	
2	82	0	
2	83	0	
2	84	0	
2	85	0	
2	86	0	
2	87	0	
2	88	0	
2	89	0	
2	90	0	
2	91	0	
2	92	0	
2	93	0	
2	94	0	
2	95	0	
2	96	0	
2	97	0	
2	98	0	
2	99	0	
2	100	0	
3	0	0	
3	1	0	
3	2	0	
3	3	0	
3	4	0	
3	5	0	
3	6	0	
3	7	0	
3	8	0	
3	9	0	
3	10	0	
3	11	0	
3	12	0	
3	13	0	
3	14	0	
3	15	0	
3	16	0	
3	17	0	
3	18	0	
3	19	0	
3	20	0	
3	21	0	
3	22	0	
3	23	0	
3	24	0	
3	25	0	
3	26	0	
3	27	0	
3	28	0	
3	29	0	
3	30	0	
3	31	0	
3	32	0	
3	33	0	
3	34	0	
3	35	0	
3	36	0	
3	37	0	
3	38	0	
3	39	0	
3	40	0	
3	41	0	
3	42	0	
3	43	0	
3	44	0	
3	45	0	
3	46	0	
3	47	0	
3	48	0	
3	49	0	
3	50	0	
3	51	0	
3	52	0	
3	53	0	
3	54	0	
3	55	0	
3	56	0	
3	57	0	
3	58	0	
3	59	0	
3	60	0	
3	61	0	
3	62	0	
3	63	0	
3	64	0	
3	65	0	
3	66	0	
3	67	0	
3	68	0	
3	69	0	
3	70	0	
3	71	0	
3	72	0	
3	73	0	
3	74	0	
3	75	0	
3	76	0	
3	77	0	
3	78	0	
3	79	0	
3	80	0	
3	81	0	
3	82	0	
3	83	0	
3	84	0	
3	85	0	
3	86	0	
3	87	0	
3	88	0	
3	89	0	
3	90	0	
3	91	0	
3	92	0	
3	93	0	
3	94	0	
3	95	0	
3	96	0	
3	97	0	
3	98	0	
3	99	0	
3	100	0	
4	0	0	
4	1	0	
4	2	0	
4	3	0	
4	4	0	
4	5	0	
4	6	0	
4	7	0	
4	8	0	
4	9	0	
4	10	0	
4	11	0	
4	12	0	
4	13	0	
4	14	0	
4	15	0	
4	16	0	
4	17	0	
4	18	0	
4	19	0	
4	20	0	
4	21	0	
4	22	0	
4	23	0	
4	24	0	
4	25	0	
4	26	0	
4	27	0	
4	28	0	
4	29	0	
4	30	0	
4	31	0	
4	32	0	
4	33	0	
4	34	0	
4	35	0	
4	36	0	
4	37	0	
4	38	0	
4	39	0	
4	40	0	
4	41	0	
4	42	0	
4	43	0	
4	44	0	
4	45	0	
4	46	0	
4	47	0	
4	48	0	
4	49	0	
4	50	0	
4	51	0	
4	52	0	
4	53	0	
4	54	0	
4	55	0	
4	56	0	
4	57	0	
4	58	0	
4	59	0	
4	60	0	
4	61	0	
4	62	0	
4	63	0	
4	64	0	
4	65	0	
4	66	0	
4	67	0	
4	68	0	
4	69	0	
4	70	0	
4	71	0	
4	72	0	
4	73	0	
4	74	0	
4	75	0	
4	76	0	
4	77	0	
4	78	0	
4	79	0	
4	80	0	
4	81	0	
4	82	0	
4	83	0	
4	84	0	
4	85	0	
4	86	0	
4	87	0	
4	88	0	
4	89	0	
4	90	0	
4	91	0	
4	92	0	
4	93	0	
4	94	0	
4	95	0	
4	96	0	
4	97	0	
4	98	0	
4	99	0	
4	100	0	
5	0	0	
5	1	0	
5	2	0	
5	3	0	
5	4	0	
5	5	0	
5	6	0	
5	7	0	
5	8	0	
5	9	0	
5	10	0	
5	11	0	
5	12	0	
5	13	0	
5	14	0	
5	15	0	
5	16	0	
5	17	0	
5	18	0	
5	19	0	
5	20	0	
5	21	0	
5	22	0	
5	23	0	
5	24	0	
5	25	0	
5	26	0	
5	27	0	
5	28	0	
5	29	0	
5	30	0	
5	31	0	
5	32	0	
5	33	0	
5	34	0	
5	35	0	
5	36	0	
5	37	0	
5	38	0	
5	39	0	
5	40	0	
5	41	0	
5	42	0	
5	43	0	
5	44	0	
5	45	0	
5	46	0	
5	47	0	
5	48	0	
5	49	0	
5	50	0	
5	51	0	
5	52	0	
5	53	0	
5	54	0	
5	55	0	
5	56	0	
5	57	0	
5	58	0	
5	59	0	
5	60	0	
5	61	0	
5	62	0	
5	63	0	
5	64	0	
5	65	0	
5	66	0	
5	67	0	
5	68	0	
5	69	0	
5	70	0	
5	71	0	
5	72	0	
5	73	0	
5	74	0	
5	75	0	
5	76	0	
5	77	0	
5	78	0	
5	79	0	
5	80	0	
5	81	0	
5	82	0	
5	83	0	
5	84	0	
5	85	0	
5	86	0	
5	87	0	
5	88	0	
5	89	0	
5	90	0	
5	91	0	
5	92	0	
5	93	0	
5	94	0	
5	95	0	
5	96	0	
5	97	0	
5	98	0	
5	99	0	
5	100	0	
6	0	0	
6	1	0	
6	2	0	
6	3	0	
6	4	0	
6	5	0	
6	6	0	
6	7	0	
6	8	0	
6	9	0	
6	10	0	
6	11	0	
6	12	0	
6	13	0	
6	14	0	
6	15	0	
6	16	0	
6	17	0	
6	18	0	
6	19	0	
6	20	0	
6	21	0	
6	22	0	
6	23	0	
6	24	0	
6	25	0	
6	26	0	
6	27	0	
6	28	0	
6	29	0	
6	30	0	
6	31	0	
6	32	0	
6	33	0	
6	34	0	
6	35	0	
6	36	0	
6	37	0	
6	38	0	
6	39	0	
6	40	0	
6	41	0	
6	42	0	
6	43	0	
6	44	0	
6	45	0	
6	46	0	
6	47	0	
6	48	0	
6	49	0	
6	50	0	
6	51	0	
6	52	0	
6	53	0	
6	54	0	
6	55	0	
6	56	0	
6	57	0	
6	58	0	
6	59	0	
6	60	0	
6	61	0	
6	62	0	
6	63	0	
6	64	0	
6	65	0	
6	66	0	
6	67	0	
6	68	0	
6	69	0	
6	70	0	
6	71	0	
6	72	0	
6	73	0	
6	74	0	
6	75	0	
6	76	0	
6	77	0	
6	78	0	
6	79	0	
6	80	0	
6	81	0	
6	82	0	
6	83	0	
6	84	0	
6	85	0	
6	86	0	
6	87	0	
6	88	0	
6	89	0	
6	90	0	
6	91	0	
6	92	0	
6	93	0	
6	94	0	
6	95	0	
6	96	0	
6	97	0	
6	98	0	
6	99	0	
6	100	0	
7	0	0	
7	1	0	
7	2	0	
7	3	0	
7	4	0	
7	5	0	
7	6	0	
7	7	0	
7	8	0	
7	9	0	
7	10	0	
7	11	0	
7	12	0	
7	13	0	
7	14	0	
7	15	0	
7	16	0	
7	17	0	
7	18	0	
7	19	0	
7	20	0	
7	21	0	
7	22	0	
7	23	0	
7	24	0	
7	25	0	
7	26	0	
7	27	0	
7	28	0	
7	29	0	
7	30	0	
7	31	0	
7	32	0	
7	33	0	
7	34	0	
7	35	0	
7	36	0	
7	37	0	
7	38	0	
7	39	0	
7	40	0	
7	41	0	
7	42	0	
7	43	0	
7	44	0	
7	45	0	
7	46	0	
7	47	0	
7	48	0	
7	49	0	
7	50	0	
7	51	0	
7	52	0	
7	53	0	
7	54	0	
7	55	0	
7	56	0	
7	57	0	
7	58	0	
7	59	0	
7	60	0	
7	61	0	
7	62	0	
7	63	0	
7	64	0	
7	65	0	
7	66	0	
7	67	0	
7	68	0	
7	69	0	
7	70	0	
7	71	0	
7	72	0	
7	73	0	
7	74	0	
7	75	0	
7	76	0	
7	77	0	
7	78	0	
7	79	0	
7	80	0	
7	81	0	
7	82	0	
7	83	0	
7	84	0	
7	85	0	
7	86	0	
7	87	0	
7	88	0	
7	89	0	
7	90	0	
7	91	0	
7	92	0	
7	93	0	
7	94	0	
7	95	0	
7	96	0	
7	97	0	
7	98	0	
7	99	0	
7	100	0	
8	0	0	
8	1	0	
8	2	0	
8	3	0	
8	4	0	
8	5	0	
8	6	0	
8	7	0	
8	8	0	
8	9	0	
8	10	0	
8	11	0	
8	12	0	
8	13	0	
8	14	0	
8	15	0	
8	16	0	
8	17	0	
8	18	0	
8	19	0	
8	20	0	
8	21	0	
8	22	0	
8	23	0	
8	24	0	
8	25	0	
8	26	0	
8	27	0	
8	28	0	
8	29	0	
8	30	0	
8	31	0	
8	32	0	
8	33	0	
8	34	0	
8	35	0	
8	36	0	
8	37	0	
8	38	0	
8	39	0	
8	40	0	
8	41	0	
8	42	0	
8	43	0	
8	44	0	
8	45	0	
8	46	0	
8	47	0	
8	48	0	
8	49	0	
8	50	0	
8	51	0	
8	52	0	
8	53	0	
8	54	0	
8	55	0	
8	56	0	
8	57	0	
8	58	0	
8	59	0	
8	60	0	
8	61	0	
8	62	0	
8	63	0	
8	64	0	
8	65	0	
8	66	0	
8	67	0	
8	68	0	
8	69	0	
8	70	0	
8	71	0	
8	72	0	
8	73	0	
8	74	0	
8	75	0	
8	76	0	
8	77	0	
8	78	0	
8	79	0	
8	80	0	
8	81	0	
8	82	0	
8	83	0	
8	84	0	
8	85	0	
8	86	0	
8	87	0	
8	88	0	
8	89	0	
8	90	0	
8	91	0	
8	92	0	
8	93	0	
8	94	0	
8	95	0	
8	96	0	
8	97	0	
8	98	0	
8	99	0	
8	100	0	
9	0	0	
9	1	0	
9	2	0	
9	3	0	
9	4	0	
9	5	0	
9	6	0	
9	7	0	
9	8	0	
9	9	0	
9	10	0	
9	11	0	
9	12	0	
9	13	0	
9	14	0	
9	15	0	
9	16	0	
9	17	0	
9	18	0	
9	19	0	
9	20	0	
9	21	0	
9	22	0	
9	23	0	
9	24	0	
9	25	0	
9	26	0	
9	27	0	
9	28	0	
9	29	0	
9	30	0	
9	31	0	
9	32	0	
9	33	0	
9	34	0	
9	35	0	
9	36	0	
9	37	0	
9	38	0	
9	39	0	
9	40	0	
9	41	0	
9	42	0	
9	43	0	
9	44	0	
9	45	0	
9	46	0	
9	47	0	
9	48	0	
9	49	0	
9	50	0	
9	51	0	
9	52	0	
9	53	0	
9	54	0	
9	55	0	
9	56	0	
9	57	0	
9	58	0	
9	59	0	
9	60	0	
9	61	0	
9	62	0	
9	63	0	
9	64	0	
9	65	0	
9	66	0	
9	67	0	
9	68	0	
9	69	0	
9	70	0	
9	71	0	
9	72	0	
9	73	0	
9	74	0	
9	75	0	
9	76	0	
9	77	0	
9	78	0	
9	79	0	
9	80	0	
9	81	0	
9	82	0	
9	83	0	
9	84	0	
9	85	0	
9	86	0	
9	87	0	
9	88	0	
9	89	0	
9	90	0	
9	91	0	
9	92	0	
9	93	0	
9	94	0	
9	95	0	
9	96	0	
9	97	0	
9	98	0	
9	99	0	
9	100	0	
10	0	0	
10	1	0	
10	2	0	
10	3	0	
10	4	0	
10	5	0	
10	6	0	
10	7	0	
10	8	0	
10	9	0	
10	10	0	
10	11	0	
10	12	0	
10	13	0	
10	14	0	
10	15	0	
10	16	0	
10	17	0	
10	18	0	
10	19	0	
10	20	0	
10	21	0	
10	22	0	
10	23	0	
10	24	0	
10	25	0	
10	26	0	
10	27	0	
10	28	0	
10	29	0	
10	30	0	
10	31	0	
10	32	0	
10	33	0	
10	34	0	
10	35	0	
10	36	0	
10	37	0	
10	38	0	
10	39	0	
10	40	0	
10	41	0	
10	42	0	
10	43	0	
10	44	0	
10	45	0	
10	46	0	
10	47	0	
10	48	0	
10	49	0	
10	50	0	
10	51	0	
10	52	0	
10	53	0	
10	54	0	
10	55	0	
10	56	0	
10	57	0	
10	58	0	
10	59	0	
10	60	0	
10	61	0	
10	62	0	
10	63	0	
10	64	0	
10	65	0	
10	66	0	
10	67	0	
10	68	0	
10	69	0	
10	70	0	
10	71	0	
10	72	0	
10	73	0	
10	74	0	
10	75	0	
10	76	0	
10	77	0	
10	78	0	
10	79	0	
10	80	0	
10	81	0	
10	82	0	
10	83	0	
10	84	0	
10	85	0	
10	86	0	
10	87	0	
10	88	0	
10	89	0	
10	90	0	
10	91	0	
10	92	0	
10	93	0	
10	94	0	
10	95	0	
10	96	0	
10	97	0	
10	98	0	
10	99	0	
10	100	0	
11	0	0	
11	1	0	
11	2	0	
11	3	0	
11	4	0	
11	5	0	
11	6	0	
11	7	0	
11	8	0	
11	9	0	
11	10	0	
11	11	0	
11	12	0	
11	13	0	
11	14	0	
11	15	0	
11	16	0	
11	17	0	
11	18	0	
11	19	0	
11	20	0	
11	21	0	
11	22	0	
11	23	0	
11	24	0	
11	25	0	
11	26	0	
11	27	0	
11	28	0	
11	29	0	
11	30	0	
11	31	0	
11	32	0	
11	33	0	
11	34	0	
11	35	0	
11	36	0	
11	37	0	
11	38	0	
11	39	0	
11	40	0	
11	41	0	
11	42	0	
11	43	0	
11	44	0	
11	45	0	
11	46	0	
11	47	0	
11	48	0	
11	49	0	
11	50	0	
11	51	0	
11	52	0	
11	53	0	
11	54	0	
11	55	0	
11	56	0	
11	57	0	
11	58	0	
11	59	0	
11	60	0	
11	61	0	
11	62	0	
11	63	0	
11	64	0	
11	65	0	
11	66	0	
11	67	0	
11	68	0	
11	69	0	
11	70	0	
11	71	0	
11	72	0	
11	73	0	
11	74	0	
11	75	0	
11	76	0	
11	77	0	
11	78	0	
11	79	0	
11	80	0	
11	81	0	
11	82	0	
11	83	0	
11	84	0	
11	85	0	
11	86	0	
11	87	0	
11	88	0	
11	89	0	
11	90	0	
11	91	0	
11	92	0	
11	93	0	
11	94	0	
11	95	0	
11	96	0	
11	97	0	
11	98	0	
11	99	0	
11	100	0	
12	0	0	
12	1	0	
12	2	0	
12	3	0	
12	4	0	
12	5	0	
12	6	0	
12	7	0	
12	8	0	
12	9	0	
12	10	0	
12	11	0	
12	12	0	
12	13	0	
[...]
POINT_DATA	10201
VECTORS u0 float
0	0	0	
-1.41686e-007	-1.13496e-007	0	
-2.23678e-007	-1.72514e-007	0	
-2.69443e-007	-2.05406e-007	0	
-2.76739e-007	-2.26116e-007	0	
-2.47185e-007	-2.41107e-007	0	
-1.81544e-007	-2.54859e-007	0	
-8.06819e-008	-2.70822e-007	0	
5.44543e-008	-2.91894e-007	0	
2.22769e-007	-3.20582e-007	0	
4.23018e-007	-3.5908e-007	0	
6.53819e-007	-4.0932e-007	0	
9.13677e-007	-4.72996e-007	0	
1.201e-006	-5.51599e-007	0	
1.51412e-006	-6.46432e-007	0	
1.85131e-006	-7.58641e-007	0	
2.21077e-006	-8.89224e-007	0	
2.59066e-006	-1.03905e-006	0	
2.98909e-006	-1.20888e-006	0	
3.4041e-006	-1.39934e-006	0	
3.83371e-006	-1.61098e-006	0	
4.27585e-006	-1.84422e-006	0	
4.72844e-006	-2.09938e-006	0	
5.18932e-006	-2.37668e-006	0	
5.65632e-006	-2.67622e-006	0	
6.12721e-006	-2.99798e-006	0	
6.59976e-006	-3.34184e-006	0	
7.07174e-006	-3.70753e-006	0	
7.5409e-006	-4.09467e-006	0	
8.00504e-006	-4.50275e-006	0	
8.46198e-006	-4.93114e-006	0	
8.9096e-006	-5.3791e-006	0	
9.34587e-006	-5.84574e-006	0	
9.76882e-006	-6.33005e-006	0	
1.01766e-005	-6.83091e-006	0	
1.05676e-005	-7.34709e-006	0	
1.09401e-005	-7.87726e-006	0	
1.12929e-005	-8.42003e-006	0	
1.16248e-005	-8.97392e-006	0	
1.19349e-005	-9.53745e-006	0	
1.22222e-005	-1.01091e-005	0	
1.24864e-005	-1.06874e-005	0	
1.27268e-005	-1.12707e-005	0	
1.29434e-005	-1.18577e-005	0	
1.31362e-005	-1.24469e-005	0	
1.33051e-005	-1.30369e-005	0	
1.34506e-005	-1.36265e-005	0	
1.35731e-005	-1.42145e-005	0	
1.3673e-005	-1.47997e-005	0	
1.3751e-005	-1.53812e-005	0	
1.38079e-005	-1.59582e-005	0	
1.38443e-005	-1.65299e-005	0	
1.38609e-005	-1.70957e-005	0	
1.38585e-005	-1.76549e-005	0	
1.38378e-005	-1.82073e-005	0	
1.37994e-005	-1.87523e-005	0	
1.3744e-005	-1.92898e-005	0	
1.36721e-005	-1.98193e-005	0	
1.35842e-005	-2.03406e-005	0	
1.34806e-005	-2.08535e-005	0	
1.33618e-005	-2.13577e-005	0	
1.3228e-005	-2.18529e-005	0	
1.30796e-005	-2.23388e-005	0	
1.29167e-005	-2.2815e-005	0	
1.27397e-005	-2.3281e-005	0	
1.25488e-005	-2.37364e-005	0	
1.23442e-005	-2.41806e-005	0	
1.21263e-005	-2.4613e-005	0	
1.18954e-005	-2.5033e-005	0	
1.16521e-005	-2.54397e-005	0	
1.13968e-005	-2.58325e-005	0	
1.11303e-005	-2.62106e-005	0	
1.08532e-005	-2.65732e-005	0	
1.05663e-005	-2.69194e-005	0	
1.02708e-005	-2.72484e-005	0	
9.96778e-006	-2.75595e-005	0	
9.65838e-006	-2.78519e-005	0	
9.34405e-006	-2.8125e-005	0	
9.02628e-006	-2.83781e-005	0	
8.70669e-006	-2.86108e-005	0	
8.38701e-006	-2.88227e-005	0	
8.06905e-006	-2.90134e-005	0	
7.75469e-006	-2.91831e-005	0	
7.44585e-006	-2.93317e-005	0	
7.1445e-006	-2.94596e-005	0	
6.85254e-006	-2.95673e-005	0	
6.57185e-006	-2.96556e-005	0	
6.30418e-006	-2.97255e-005	0	
6.05115e-006	-2.97782e-005	0	
5.81415e-006	-2.98152e-005	0	
5.59431e-006	-2.98383e-005	0	
5.39243e-006	-2.98494e-005	0	
5.20889e-006	-2.98508e-005	0	
5.04357e-006	-2.98447e-005	0	
4.8958e-006	-2.98338e-005	0	
4.76421e-006	-2.98204e-005	0	
4.64669e-006	-2.9807e-005	0	
4.54028e-006	-2.97958e-005	0	
4.44111e-006	-2.97884e-005	0	
4.34465e-006	-2.97851e-005	0	
4.24701e-006	-2.97846e-005	0	
0	0	0	
-1.11398e-007	-6.38584e-008	0	
-2.03919e-007	-1.33884e-007	0	
-2.53609e-007	-1.93034e-007	0	
-2.63748e-007	-2.43906e-007	0	
-2.3523e-007	-2.9029e-007	0	
-1.69229e-007	-3.3565e-007	0	
-6.67763e-008	-3.82966e-007	0	
7.1024e-008	-4.34823e-007	0	
2.42951e-007	-4.93485e-007	0	
4.47649e-007	-5.60956e-007	0	
6.83638e-007	-6.39001e-007	0	
9.49332e-007	-7.29181e-007	0	
1.24306e-006	-8.32872e-007	0	
1.56309e-006	-9.51283e-007	0	
1.90763e-006	-1.08548e-006	0	
2.27482e-006	-1.23639e-006	0	
2.66277e-006	-1.40481e-006	0	
3.06955e-006	-1.59145e-006	0	
3.49315e-006	-1.79688e-006	0	
3.93153e-006	-2.02158e-006	0	
4.38261e-006	-2.26594e-006	0	
4.84424e-006	-2.53023e-006	0	
5.31422e-006	-2.81463e-006	0	
5.79033e-006	-3.1192e-006	0	
6.2703e-006	-3.44392e-006	0	
6.75185e-006	-3.78863e-006	0	
7.23268e-006	-4.15308e-006	0	
7.71052e-006	-4.53689e-006	0	
8.1831e-006	-4.93961e-006	0	
8.64819e-006	-5.36064e-006	0	
9.10364e-006	-5.79928e-006	0	
9.54733e-006	-6.25475e-006	0	
9.97728e-006	-6.72613e-006	0	
1.03916e-005	-7.21242e-006	0	
1.07885e-005	-7.71252e-006	0	
1.11665e-005	-8.22525e-006	0	
1.15242e-005	-8.74938e-006	0	
1.18604e-005	-9.28361e-006	0	
1.2174e-005	-9.82662e-006	0	
1.24644e-005	-1.03771e-005	0	
1.2731e-005	-1.09336e-005	0	
1.29733e-005	-1.14949e-005	0	
1.31911e-005	-1.20597e-005	0	
1.33844e-005	-1.26267e-005	0	
1.35535e-005	-1.31946e-005	0	
1.36986e-005	-1.37623e-005	0	
1.38202e-005	-1.43287e-005	0	
1.39188e-005	-1.48929e-005	0	
1.39952e-005	-1.54539e-005	0	
1.405e-005	-1.60109e-005	0	
1.40841e-005	-1.65633e-005	0	
1.40981e-005	-1.71103e-005	0	
1.4093e-005	-1.76515e-005	0	
1.40694e-005	-1.81863e-005	0	
1.40279e-005	-1.87145e-005	0	
1.39693e-005	-1.92355e-005	0	
1.3894e-005	-1.97491e-005	0	
1.38026e-005	-2.02549e-005	0	
1.36954e-005	-2.07527e-005	0	
1.35729e-005	-2.12422e-005	0	
1.34353e-005	-2.1723e-005	0	
1.32829e-005	-2.21948e-005	0	
1.31158e-005	-2.26572e-005	0	
1.29344e-005	-2.31098e-005	0	
1.27389e-005	-2.35521e-005	0	
1.25295e-005	-2.39835e-005	0	
1.23065e-005	-2.44036e-005	0	
1.20703e-005	-2.48116e-005	0	
1.18213e-005	-2.52071e-005	0	
1.156e-005	-2.55892e-005	0	
1.12871e-005	-2.59572e-005	0	
1.10034e-005	-2.63106e-005	0	
1.07096e-005	-2.66485e-005	0	
1.04068e-005	-2.69703e-005	0	
1.00961e-005	-2.72753e-005	0	
9.77883e-006	-2.75629e-005	0	
9.45635e-006	-2.78325e-005	0	
9.13021e-006	-2.80835e-005	0	
8.80208e-006	-2.83157e-005	0	
8.47373e-006	-2.85286e-005	0	
8.14704e-006	-2.87221e-005	0	
7.82396e-006	-2.88962e-005	0	
7.5065e-006	-2.90509e-005	0	
7.19668e-006	-2.91866e-005	0	
6.89651e-006	-2.93038e-005	0	
6.60796e-006	-2.94031e-005	0	
6.33288e-006	-2.94854e-005	0	
6.07298e-006	-2.95517e-005	0	
5.82976e-006	-2.96033e-005	0	
5.60444e-006	-2.96417e-005	0	
5.3979e-006	-2.96686e-005	0	
5.21058e-006	-2.96856e-005	0	
5.04243e-006	-2.96947e-005	0	
4.89281e-006	-2.96978e-005	0	
4.76034e-006	-2.96969e-005	0	
4.64285e-006	-2.96938e-005	0	
4.53727e-006	-2.96901e-005	0	
4.4395e-006	-2.96872e-005	0	
4.34462e-006	-2.96856e-005	0	
4.24759e-006	-2.96857e-005	0	
0	0	0	
-1.02825e-007	-6.4794e-008	0	
-1.84455e-007	-1.32874e-007	0	
-2.33124e-007	-2.03807e-007	0	
-2.43084e-007	-2.73496e-007	0	
-2.14271e-007	-3.42304e-007	0	
-1.47217e-007	-4.11868e-007	0	
-4.28498e-008	-4.84202e-007	0	
9.77188e-008	-5.61313e-007	0	
2.73209e-007	-6.45081e-007	0	
4.82192e-007	-7.37221e-007	0	
7.23107e-007	-8.39273e-007	0	
9.94294e-007	-9.52607e-007	0	
1.29402e-006	-1.07844e-006	0	
1.62048e-006	-1.21784e-006	0	
1.97184e-006	-1.37176e-006	0	
2.34619e-006	-1.54104e-006	0	
2.74161e-006	-1.72638e-006	0	
3.15609e-006	-1.92841e-006	0	
3.58761e-006	-2.14763e-006	0	
4.03409e-006	-2.38449e-006	0	
4.49339e-006	-2.63929e-006	0	
4.96334e-006	-2.91229e-006	0	
5.44169e-006	-3.20361e-006	0	
5.92617e-006	-3.51331e-006	0	
6.41448e-006	-3.84133e-006	0	
6.90428e-006	-4.18752e-006	0	
7.39322e-006	-4.55161e-006	0	
7.879e-006	-4.93327e-006	0	
8.35929e-006	-5.33204e-006	0	
8.83185e-006	-5.74738e-006	0	
9.29444e-006	-6.17866e-006	0	
9.74494e-006	-6.62516e-006	0	
1.01813e-005	-7.08604e-006	0	
1.06016e-005	-7.56042e-006	0	
1.1004e-005	-8.04729e-006	0	
1.1387e-005	-8.54559e-006	0	
1.17491e-005	-9.05421e-006	0	
1.20891e-005	-9.57198e-006	0	
1.24061e-005	-1.00977e-005	0	
1.26993e-005	-1.06302e-005	0	
1.2968e-005	-1.11683e-005	0	
1.3212e-005	-1.17107e-005	0	
1.34309e-005	-1.22564e-005	0	
1.36248e-005	-1.2804e-005	0	
1.3794e-005	-1.33526e-005	0	
1.39387e-005	-1.39011e-005	0	
1.40594e-005	-1.44484e-005	0	
1.41569e-005	-1.49937e-005	0	
1.42317e-005	-1.55362e-005	0	
1.42846e-005	-1.6075e-005	0	
1.43165e-005	-1.66095e-005	0	
1.43282e-005	-1.71392e-005	0	
1.43205e-005	-1.76634e-005	0	
1.4294e-005	-1.81817e-005	0	
1.42497e-005	-1.86938e-005	0	
1.4188e-005	-1.91992e-005	0	
1.41095e-005	-1.96976e-005	0	
1.40148e-005	-2.01887e-005	0	
1.39043e-005	-2.06722e-005	0	
1.37782e-005	-2.11477e-005	0	
1.36369e-005	-2.1615e-005	0	
1.34807e-005	-2.20737e-005	0	
1.33097e-005	-2.25234e-005	0	
1.31241e-005	-2.29636e-005	0	
1.29242e-005	-2.3394e-005	0	
1.27102e-005	-2.38141e-005	0	
1.24824e-005	-2.42233e-005	0	
1.22411e-005	-2.4621e-005	0	
1.19867e-005	-2.50067e-005	0	
1.17197e-005	-2.53798e-005	0	
1.14409e-005	-2.57396e-005	0	
1.11508e-005	-2.60855e-005	0	
1.08504e-005	-2.64169e-005	0	
1.05408e-005	-2.67331e-005	0	
1.02229e-005	-2.70335e-005	0	
9.89823e-006	-2.73176e-005	0	
9.56809e-006	-2.75849e-005	0	
9.23409e-006	-2.78348e-005	0	
8.89792e-006	-2.80672e-005	0	
8.56143e-006	-2.82816e-005	0	
8.22653e-006	-2.84779e-005	0	
7.89523e-006	-2.86561e-005	0	
7.56961e-006	-2.88163e-005	0	
7.25178e-006	-2.89586e-005	0	
6.94381e-006	-2.90836e-005	0	
6.64775e-006	-2.91918e-005	0	
6.36554e-006	-2.92839e-005	0	
6.09898e-006	-2.93607e-005	0	
5.84965e-006	-2.94235e-005	0	
5.61884e-006	-2.94732e-005	0	
5.4075e-006	-2.95114e-005	0	
5.21616e-006	-2.95395e-005	0	
5.0448e-006	-2.95591e-005	0	
4.89281e-006	-2.95716e-005	0	
4.75886e-006	-2.95788e-005	0	
4.64078e-006	-2.95822e-005	0	
4.5355e-006	-2.95833e-005	0	
4.43894e-006	-2.95835e-005	0	
4.34612e-006	-2.9584e-005	0	
4.25085e-006	-2.95856e-005	0	
0	0	0	
-9.8073e-008	-7.21332e-008	0	
-1.71363e-007	-1.47928e-007	0	
-2.13913e-007	-2.27548e-007	0	
-2.20741e-007	-3.10179e-007	0	
-1.89593e-007	-3.95143e-007	0	
-1.20194e-007	-4.83036e-007	0	
-1.30594e-008	-5.75053e-007	0	
1.3084e-007	-6.7262e-007	0	
3.10256e-007	-7.77194e-007	0	
5.23728e-007	-8.90166e-007	0	
7.69644e-007	-1.01281e-006	0	
1.04628e-006	-1.14627e-006	0	
1.35185e-006	-1.29157e-006	0	
1.68452e-006	-1.4496e-006	0	
2.04241e-006	-1.62119e-006	0	
2.42357e-006	-1.80705e-006	0	
2.82604e-006	-2.00779e-006	0	
3.24779e-006	-2.22393e-006	0	
3.68675e-006	-2.45593e-006	0	
4.14081e-006	-2.70413e-006	0	
4.60782e-006	-2.96882e-006	0	
5.08554e-006	-3.25019e-006	0	
5.57172e-006	-3.54835e-006	0	
6.06403e-006	-3.86331e-006	0	
6.56012e-006	-4.19502e-006	0	
7.05761e-006	-4.5433e-006	0	
7.55412e-006	-4.9079e-006	0	
8.04729e-006	-5.28848e-006	0	
8.53477e-006	-5.68462e-006	0	
9.01427e-006	-6.09581e-006	0	
9.48353e-006	-6.52148e-006	0	
9.94038e-006	-6.96098e-006	0	
1.03827e-005	-7.41355e-006	0	
1.08085e-005	-7.87837e-006	0	
1.1216e-005	-8.35454e-006	0	
1.16036e-005	-8.84106e-006	0	
1.19698e-005	-9.33692e-006	0	
1.23134e-005	-9.84105e-006	0	
1.26334e-005	-1.03524e-005	0	
1.29291e-005	-1.08698e-005	0	
1.31998e-005	-1.13923e-005	0	
1.34452e-005	-1.19187e-005	0	
1.36651e-005	-1.24479e-005	0	
1.38595e-005	-1.29789e-005	0	
1.40285e-005	-1.35107e-005	0	
1.41727e-005	-1.40423e-005	0	
1.42926e-005	-1.45727e-005	0	
1.43887e-005	-1.51012e-005	0	
1.44619e-005	-1.56269e-005	0	
1.45129e-005	-1.61492e-005	0	
1.45426e-005	-1.66674e-005	0	
1.4552e-005	-1.71809e-005	0	
1.45417e-005	-1.76894e-005	0	
1.45126e-005	-1.81922e-005	0	
1.44654e-005	-1.86892e-005	0	
1.44008e-005	-1.91798e-005	0	
1.43193e-005	-1.96639e-005	0	
1.42215e-005	-2.01411e-005	0	
1.41078e-005	-2.0611e-005	0	
1.39784e-005	-2.10735e-005	0	
1.38337e-005	-2.15281e-005	0	
1.36739e-005	-2.19746e-005	0	
1.34992e-005	-2.24125e-005	0	
1.33097e-005	-2.28416e-005	0	
1.31057e-005	-2.32613e-005	0	
1.28874e-005	-2.36713e-005	0	
1.26551e-005	-2.40709e-005	0	
1.24089e-005	-2.44597e-005	0	
1.21495e-005	-2.48372e-005	0	
1.18772e-005	-2.52028e-005	0	
1.15927e-005	-2.55558e-005	0	
1.12967e-005	-2.58957e-005	0	
1.09901e-005	-2.6222e-005	0	
1.06739e-005	-2.6534e-005	0	
1.03493e-005	-2.68311e-005	0	
1.00175e-005	-2.71129e-005	0	
9.68005e-006	-2.73789e-005	0	
9.33852e-006	-2.76286e-005	0	
8.99464e-006	-2.78617e-005	0	
8.65028e-006	-2.80779e-005	0	
8.30742e-006	-2.82771e-005	0	
7.96813e-006	-2.84592e-005	0	
7.63454e-006	-2.86241e-005	0	
7.30881e-006	-2.87722e-005	0	
6.99311e-006	-2.89036e-005	0	
6.68956e-006	-2.90189e-005	0	
6.40017e-006	-2.91185e-005	0	
6.12683e-006	-2.92034e-005	0	
5.87118e-006	-2.92743e-005	0	
5.63462e-006	-2.93322e-005	0	
5.41817e-006	-2.93784e-005	0	
5.22242e-006	-2.94139e-005	0	
5.04745e-006	-2.94403e-005	0	
4.89271e-006	-2.94587e-005	0	
4.75695e-006	-2.94708e-005	0	
4.63814e-006	-2.94779e-005	0	
4.53332e-006	-2.94817e-005	0	
4.43863e-006	-2.94835e-005	0	
4.34911e-006	-2.94852e-005	0	
4.25832e-006	-2.94882e-005	0	
0	0	0	
-9.39973e-008	-8.1778e-008	0	
-1.61292e-007	-1.66735e-007	0	
-1.97965e-007	-2.55576e-007	0	
-2.00017e-007	-3.48503e-007	0	
-1.64946e-007	-4.45705e-007	0	
-9.18336e-008	-5.47639e-007	0	
1.91513e-008	-6.55124e-007	0	
1.6723e-007	-7.6918e-007	0	
3.51232e-007	-8.90908e-007	0	
5.69701e-007	-1.0214e-006	0	
8.20974e-007	-1.16167e-006	0	
1.10328e-006	-1.31261e-006	0	
1.41478e-006	-1.47501e-006	0	
1.75365e-006	-1.64959e-006	0	
2.11797e-006	-1.83702e-006	0	
2.50578e-006	-2.03788e-006	0	
2.91508e-006	-2.25268e-006	0	
3.34382e-006	-2.48184e-006	0	
3.78991e-006	-2.72572e-006	0	
4.25122e-006	-2.9846e-006	0	
4.72558e-006	-3.25872e-006	0	
5.21072e-006	-3.54822e-006	0	
5.70435e-006	-3.85318e-006	0	
6.20411e-006	-4.17361e-006	0	
6.7076e-006	-4.5094e-006	0	
7.21241e-006	-4.8604e-006	0	
7.7161e-006	-5.22633e-006	0	
8.21627e-006	-5.60686e-006	0	
8.71057e-006	-6.00158e-006	0	
9.19665e-006	-6.41002e-006	0	
9.67226e-006	-6.83167e-006	0	
1.01351e-005	-7.26592e-006	0	
1.05832e-005	-7.71212e-006	0	
1.10143e-005	-8.16949e-006	0	
1.14266e-005	-8.63719e-006	0	
1.18184e-005	-9.11428e-006	0	
1.21884e-005	-9.59981e-006	0	
1.25353e-005	-1.00928e-005	0	
1.28581e-005	-1.05922e-005	0	
1.3156e-005	-1.10971e-005	0	
1.34285e-005	-1.16065e-005	0	
1.36751e-005	-1.21193e-005	0	
1.38956e-005	-1.26346e-005	0	
1.40902e-005	-1.31514e-005	0	
1.4259e-005	-1.36687e-005	0	
1.44024e-005	-1.41855e-005	0	
1.45211e-005	-1.4701e-005	0	
1.46157e-005	-1.52145e-005	0	
1.46871e-005	-1.57252e-005	0	
1.4736e-005	-1.62324e-005	0	
1.47635e-005	-1.67357e-005	0	
1.47704e-005	-1.72345e-005	0	
1.47575e-005	-1.77283e-005	0	
1.47257e-005	-1.82167e-005	0	
1.46758e-005	-1.86995e-005	0	
1.46083e-005	-1.91763e-005	0	
1.4524e-005	-1.96469e-005	0	
1.44232e-005	-2.01109e-005	0	
1.43065e-005	-2.05682e-005	0	
1.4174e-005	-2.10184e-005	0	
1.40262e-005	-2.14613e-005	0	
1.38631e-005	-2.18965e-005	0	
1.3685e-005	-2.23237e-005	0	
1.3492e-005	-2.27426e-005	0	
1.32843e-005	-2.31528e-005	0	
1.30621e-005	-2.35538e-005	0	
1.28255e-005	-2.39451e-005	0	
1.2575e-005	-2.43263e-005	0	
1.23108e-005	-2.46969e-005	0	
1.20335e-005	-2.50562e-005	0	
1.17437e-005	-2.54038e-005	0	
1.14422e-005	-2.57391e-005	0	
1.11297e-005	-2.60615e-005	0	
1.08072e-005	-2.63705e-005	0	
1.04761e-005	-2.66655e-005	0	
1.01375e-005	-2.6946e-005	0	
9.79292e-006	-2.72116e-005	0	
9.44403e-006	-2.74618e-005	0	
9.09257e-006	-2.76962e-005	0	
8.74044e-006	-2.79145e-005	0	
8.38967e-006	-2.81166e-005	0	
8.04236e-006	-2.83022e-005	0	
7.70071e-006	-2.84714e-005	0	
7.36696e-006	-2.86243e-005	0	
7.04333e-006	-2.8761e-005	0	
6.73201e-006	-2.88819e-005	0	
6.43512e-006	-2.89875e-005	0	
6.15461e-006	-2.90782e-005	0	
5.89224e-006	-2.9155e-005	0	
5.64947e-006	-2.92185e-005	0	
5.42744e-006	-2.92699e-005	0	
5.22683e-006	-2.93101e-005	0	
5.04785e-006	-2.93405e-005	0	
4.89006e-006	-2.93622e-005	0	
4.75239e-006	-2.93766e-005	0	
4.63299e-006	-2.93853e-005	0	
4.52916e-006	-2.93899e-005	0	
4.43732e-006	-2.93922e-005	0	
4.35281e-006	-2.93942e-005	0	
4.26967e-006	-2.9398e-005	0	
0	0	0	
-9.06027e-008	-9.15057e-008	0	
-1.53745e-007	-1.85444e-007	0	
-1.85671e-007	-2.8264e-007	0	
-1.82816e-007	-3.84136e-007	0	
-1.42858e-007	-4.90901e-007	0	
-6.48749e-008	-6.03766e-007	0	
5.10613e-008	-7.23492e-007	0	
2.04291e-007	-8.50861e-007	0	
3.93741e-007	-9.86739e-007	0	
6.17949e-007	-1.13199e-006	0	
8.7517e-007	-1.2874e-006	0	
1.16355e-006	-1.45358e-006	0	
1.48126e-006	-1.63108e-006	0	
1.82647e-006	-1.8204e-006	0	
2.19732e-006	-2.02209e-006	0	
2.59181e-006	-2.2366e-006	0	
3.00789e-006	-2.46433e-006	0	
3.4435e-006	-2.70557e-006	0	
3.89656e-006	-2.9606e-006	0	
4.36494e-006	-3.22962e-006	0	
4.84644e-006	-3.51281e-006	0	
5.3388e-006	-3.8103e-006	0	
5.83966e-006	-4.12212e-006	0	
6.34665e-006	-4.44824e-006	0	
6.85733e-006	-4.78856e-006	0	
7.36923e-006	-5.1429e-006	0	
7.87986e-006	-5.51097e-006	0	
8.38679e-006	-5.89243e-006	0	
8.88764e-006	-6.28685e-006	0	
9.38009e-006	-6.69381e-006	0	
9.86184e-006	-7.11284e-006	0	
1.03306e-005	-7.54343e-006	0	
1.07842e-005	-7.98498e-006	0	
1.12204e-005	-8.43677e-006	0	
1.16373e-005	-8.89799e-006	0	
1.20333e-005	-9.36774e-006	0	
1.24068e-005	-9.84509e-006	0	
1.27566e-005	-1.03291e-005	0	
1.30819e-005	-1.08189e-005	0	
1.33818e-005	-1.13135e-005	0	
1.36558e-005	-1.1812e-005	0	
1.39033e-005	-1.23135e-005	0	
1.41243e-005	-1.2817e-005	0	
1.43187e-005	-1.33217e-005	0	
1.44869e-005	-1.38264e-005	0	
1.46293e-005	-1.43305e-005	0	
1.47464e-005	-1.48329e-005	0	
1.48392e-005	-1.53331e-005	0	
1.49085e-005	-1.58304e-005	0	
1.49551e-005	-1.63241e-005	0	
1.49801e-005	-1.68137e-005	0	
1.49843e-005	-1.72989e-005	0	
1.49687e-005	-1.77792e-005	0	
1.49342e-005	-1.82543e-005	0	
1.48814e-005	-1.87239e-005	0	
1.48112e-005	-1.91877e-005	0	
1.47241e-005	-1.96457e-005	0	
1.46206e-005	-2.00974e-005	0	
1.45011e-005	-2.05428e-005	0	
1.43658e-005	-2.09816e-005	0	
1.42151e-005	-2.14136e-005	0	
1.40492e-005	-2.18384e-005	0	
1.3868e-005	-2.22559e-005	0	
1.36719e-005	-2.26656e-005	0	
1.34608e-005	-2.30673e-005	0	
1.3235e-005	-2.34604e-005	0	
1.29947e-005	-2.38445e-005	0	
1.27401e-005	-2.42193e-005	0	
1.24716e-005	-2.45841e-005	0	
1.21897e-005	-2.49384e-005	0	
1.1895e-005	-2.52818e-005	0	
1.15881e-005	-2.56136e-005	0	
1.127e-005	-2.59333e-005	0	
1.09416e-005	-2.62404e-005	0	
1.06041e-005	-2.65342e-005	0	
1.02589e-005	-2.68144e-005	0	
9.90732e-006	-2.70803e-005	0	
9.55112e-006	-2.73316e-005	0	
9.19206e-006	-2.75678e-005	0	
8.83208e-006	-2.77885e-005	0	
8.47324e-006	-2.79935e-005	0	
8.1177e-006	-2.81826e-005	0	
7.76771e-006	-2.83557e-005	0	
7.42556e-006	-2.85127e-005	0	
7.09356e-006	-2.86538e-005	0	
6.774e-006	-2.87792e-005	0	
6.46906e-006	-2.88892e-005	0	
6.18081e-006	-2.89842e-005	0	
5.9111e-006	-2.9065e-005	0	
5.66153e-006	-2.91322e-005	0	
5.43334e-006	-2.91867e-005	0	
5.22738e-006	-2.92294e-005	0	
5.04398e-006	-2.92616e-005	0	
4.88292e-006	-2.92845e-005	0	
4.74333e-006	-2.92994e-005	0	
4.62363e-006	-2.9308e-005	0	
4.52147e-006	-2.93121e-005	0	
4.43364e-006	-2.93137e-005	0	
4.35603e-006	-2.9315e-005	0	
4.28345e-006	-2.9319e-005	0	
0	0	0	
-8.86338e-008	-1.0046e-007	0	
-1.4959e-007	-2.02039e-007	0	
-1.7817e-007	-3.05889e-007	0	
-1.70687e-007	-4.13962e-007	0	
-1.25214e-007	-5.28067e-007	0	
-4.13455e-008	-6.49512e-007	0	
8.05661e-008	-7.79018e-007	0	
2.39929e-007	-9.17203e-007	0	
4.35817e-007	-1.06479e-006	0	
6.66729e-007	-1.22258e-006	0	
9.30696e-007	-1.39115e-006	0	
1.22571e-006	-1.57079e-006	0	
1.54997e-006	-1.76172e-006	0	
1.90182e-006	-1.96427e-006	0	
2.27945e-006	-2.17886e-006	0	
2.68081e-006	-2.40592e-006	0	
3.10377e-006	-2.64566e-006	0	
3.54626e-006	-2.89826e-006	0	
4.00625e-006	-3.16384e-006	0	
4.48165e-006	-3.44258e-006	0	
4.97026e-006	-3.73464e-006	0	
5.46976e-006	-4.04007e-006	0	
5.97778e-006	-4.35887e-006	0	
6.49193e-006	-4.69098e-006	0	
7.00973e-006	-5.0363e-006	0	
7.52863e-006	-5.39462e-006	0	
8.04609e-006	-5.76564e-006	0	
8.55962e-006	-6.14896e-006	0	
9.06686e-006	-6.54413e-006	0	
9.56553e-006	-6.95075e-006	0	
1.00533e-005	-7.36841e-006	0	
1.0528e-005	-7.79672e-006	0	
1.0987e-005	-8.23516e-006	0	
1.14283e-005	-8.68305e-006	0	
1.18498e-005	-9.13958e-006	0	
1.22496e-005	-9.60384e-006	0	
1.26264e-005	-1.00749e-005	0	
1.2979e-005	-1.05518e-005	0	
1.33066e-005	-1.10338e-005	0	
1.36082e-005	-1.15201e-005	0	
1.38834e-005	-1.20097e-005	0	
1.41316e-005	-1.25019e-005	0	
1.43527e-005	-1.29956e-005	0	
1.45467e-005	-1.34901e-005	0	
1.47138e-005	-1.39842e-005	0	
1.48547e-005	-1.44772e-005	0	
1.49699e-005	-1.49682e-005	0	
1.50605e-005	-1.54567e-005	0	
1.51272e-005	-1.59419e-005	0	
1.51712e-005	-1.64234e-005	0	
1.51933e-005	-1.69007e-005	0	
1.51946e-005	-1.73735e-005	0	
1.51761e-005	-1.78413e-005	0	
1.51387e-005	-1.8304e-005	0	
1.50831e-005	-1.87613e-005	0	
1.50101e-005	-1.92131e-005	0	
1.49203e-005	-1.96592e-005	0	
1.48142e-005	-2.00995e-005	0	
1.46921e-005	-2.05338e-005	0	
1.45543e-005	-2.0962e-005	0	
1.44011e-005	-2.13839e-005	0	
1.42326e-005	-2.17993e-005	0	
1.40489e-005	-2.22079e-005	0	
1.385e-005	-2.26094e-005	0	
1.3636e-005	-2.30034e-005	0	
1.34071e-005	-2.33897e-005	0	