# vtk DataFile Version 4.1
vtk output
ASCII
DATASET UNSTRUCTURED_GRID

POINTS	10201	float
0	0	0	
0	1	0	
0	2	0	
0	3	0	
0	4	0	
0	5	0	
0	6	0	
0	7	0	
0	8	0	
0	9	0	
0	10	0	
0	11	0	
0	12	0	
0	13	0	
0	14	0	
0	15	0	
0	16	0	
0	17	0	
0	18	0	
0	19	0	
0	20	0	
0	21	0	
0	22	0	
0	23	0	
0	24	0	
0	25	0	
0	26	0	
0	27	0	
0	28	0	
0	29	0	
0	30	0	
0	31	0	
0	32	0	
0	33	0	
0	34	0	
0	35	0	
0	36	0	
0	37	0	
0	38	0	
0	39	0	
0	40	0	
0	41	0	
0	42	0	
0	43	0	
0	44	0	
0	45	0	
0	46	0	
0	47	0	
0	48	0	
0	49	0	
0	50	0	
0	51	0	
0	52	0	
0	53	0	
0	54	0	
0	55	0	
0	56	0	
0	57	0	
0	58	0	
0	59	0	
0	60	0	
0	61	0	
0	62	0	
0	63	0	
0	64	0	
0	65	0	
0	66	0	
0	67	0	
0	68	0	
0	69	0	
0	70	0	
0	71	0	
0	72	0	
0	73	0	
0	74	0	
0	75	0	
0	76	0	
0	77	0	
0	78	0	
0	79	0	
0	80	0	
0	81	0	
0	82	0	
0	83	0	
0	84	0	
0	85	0	
0	86	0	
0	87	0	
0	88	0	
0	89	0	
0	90	0	
0	91	0	
0	92	0	
0	93	0	
0	94	0	
0	95	0	
0	96	0	
0	97	0	
0	98	0	
0	99	0	
0	100	0	
1	0	0	
1	1	0	
1	2	0	
1	3	0	
1	4	0	
1	5	0	
1	6	0	
1	7	0	
1	8	0	
1	9	0	
1	10	0	
1	11	0	
1	12	0	
1	13	0	
1	14	0	
1	15	0	
1	16	0	
1	17	0	
1	18	0	
1	19	0	
1	20	0	
1	21	0	
1	22	0	
1	23	0	
1	24	0	
1	25	0	
1	26	0	
1	27	0	
1	28	0	
1	29	0	
1	30	0	
1	31	0	
1	32	0	
1	33	0	
1	34	0	
1	35	0	
1	36	0	
1	37	0	
1	38	0	
1	39	0	
1	40	0	
1	41	0	
1	42	0	
1	43	0	
1	44	0	
1	45	0	
1	46	0	
1	47	0	
1	48	0	
1	49	0	
1	50	0	
1	51	0	
1	52	0	
1	53	0	
1	54	0	
1	55	0	
1	56	0	
1	57	0	
1	58	0	
1	59	0	
1	60	0	
1	61	0	
1	62	0	
1	63	0	
1	64	0	
1	65	0	
1	66	0	
1	67	0	
1	68	0	
1	69	0	
1	70	0	
1	71	0	
1	72	0	
1	73	0	
1	74	0	
1	75	0	
1	76	0	
1	77	0	
1	78	0	
1	79	0	
1	80	0	
1	81	0	
1	82	0	
1	83	0	
1	84	0	
1	85	0	
1	86	0	
1	87	0	
1	88	0	
1	89	0	
1	90	0	
1	91	0	
1	92	0	
1	93	0	
1	94	0	
1	95	0	
1	96	0	
1	97	0	
1	98	0	
1	99	0	
1	100	0	
2	0	0	
2	1	0	
2	2	0	
2	3	0	
2	4	0	
2	5	0	
2	6	0	
2	7	0	
2	8	0	
2	9	0	
2	10	0	
2	11	0	
2	12	0	
2	13	0	
2	14	0	
2	15	0	
2	16	0	
2	17	0	
2	18	0	
2	19	0	
2	20	0	
2	21	0	
2	22	0	
2	23	0	
2	24	0	
2	25	0	
2	26	0	
2	27	0	
2	28	0	
2	29	0	
2	30	0	
2	31	0	
2	32	0	
2	33	0	
2	34	0	
2	35	0	
2	36	0	
2	37	0	
2	38	0	
2	39	0	
2	40	0	
2	41	0	
2	42	0	
2	43	0	
2	44	0	
2	45	0	
2	46	0	
2	47	0	
2	48	0	
2	49	0	
2	50	0	
2	51	0	
2	52	0	
2	53	0	
2	54	0	
2	55	0	
2	56	0	
2	57	0	
2	58	0	
2	59	0	
2	60	0	
2	61	0	
2	62	0	
2	63	0	
2	64	0	
2	65	0	
2	66	0	
2	67	0	
2	68	0	
2	69	0	
2	70	0	
2	71	0	
2	72	0	
2	73	0	
2	74	0	
2	75	0	
2	76	0	
2	77	0	
2	78	0	
2	79	0	
2	80	0	
2	81	0	
2	82	0	
2	83	0	
2	84	0	
2	85	0	
2	86	0	
2	87	0	
2	88	0	
2	89	0	
2	90	0	
2	91	0	
2	92	0	
2	93	0	
2	94	0	
2	95	0	
2	96	0	
2	97	0	
2	98	0	
2	99	0	
2	100	0	
3	0	0	
3	1	0	
3	2	0	
3	3	0	
3	4	0	
3	5	0	
3	6	0	
3	7	0	
3	8	0	
3	9	0	
3	10	0	
3	11	0	
3	12	0	
3	13	0	
3	14	0	
3	15	0	
3	16	0	
3	17	0	
3	18	0	
3	19	0	
3	20	0	
3	21	0	
3	22	0	
3	23	0	
3	24	0	
3	25	0	
3	26	0	
3	27	0	
3	28	0	
3	29	0	
3	30	0	
3	31	0	
3	32	0	
3	33	0	
3	34	0	
3	35	0	
3	36	0	
3	37	0	
3	38	0	
3	39	0	
3	40	0	
3	41	0	
3	42	0	
3	43	0	
3	44	0	
3	45	0	
3	46	0	
3	47	0	
3	48	0	
3	49	0	
3	50	0	
3	51	0	
3	52	0	
3	53	0	
3	54	0	
3	55	0	
3	56	0	
3	57	0	
3	58	0	
3	59	0	
3	60	0	
3	61	0	
3	62	0	
3	63	0	
3	64	0	
3	65	0	
3	66	0	
3	67	0	
3	68	0	
3	69	0	
3	70	0	
3	71	0	
3	72	0	
3	73	0	
3	74	0	
3	75	0	
3	76	0	
3	77	0	
3	78	0	
3	79	0	
3	80	0	
3	81	0	
3	82	0	
3	83	0	
3	84	0	
3	85	0	
3	86	0	
3	87	0	
3	88	0	
3	89	0	
3	90	0	
3	91	0	
3	92	0	
3	93	0	
3	94	0	
3	95	0	
3	96	0	
3	97	0	
3	98	0	
3	99	0	
3	100	0	
4	0	0	
4	1	0	
4	2	0	
4	3	0	
4	4	0	
4	5	0	
4	6	0	
4	7	0	
4	8	0	
4	9	0	
4	10	0	
4	11	0	
4	12	0	
4	13	0	
4	14	0	
4	15	0	
4	16	0	
4	17	0	
4	18	0	
4	19	0	
4	20	0	
4	21	0	
4	22	0	
4	23	0	
4	24	0	
4	25	0	
4	26	0	
4	27	0	
4	28	0	
4	29	0	
4	30	0	
4	31	0	
4	32	0	
4	33	0	
4	34	0	
4	35	0	
4	36	0	
4	37	0	
4	38	0	
4	39	0	
4	40	0	
4	41	0	
4	42	0	
4	43	0	
4	44	0	
4	45	0	
4	46	0	
4	47	0	
4	48	0	
4	49	0	
4	50	0	
4	51	0	
4	52	0	
4	53	0	
4	54	0	
4	55	0	
4	56	0	
4	57	0	
4	58	0	
4	59	0	
4	60	0	
4	61	0	
4	62	0	
4	63	0	
4	64	0	
4	65	0	
4	66	0	
4	67	0	
4	68	0	
4	69	0	
4	70	0	
4	71	0	
4	72	0	
4	73	0	
4	74	0	
4	75	0	
4	76	0	
4	77	0	
4	78	0	
4	79	0	
4	80	0	
4	81	0	
4	82	0	
4	83	0	
4	84	0	
4	85	0	
4	86	0	
4	87	0	
4	88	0	
4	89	0	
4	90	0	
4	91	0	
4	92	0	
4	93	0	
4	94	0	
4	95	0	
4	96	0	
4	97	0	
4	98	0	
4	99	0	
4	100	0	
5	0	0	
5	1	0	
5	2	0	
5	3	0	
5	4	0	
5	5	0	
5	6	0	
5	7	0	
5	8	0	
5	9	0	
5	10	0	
5	11	0	
5	12	0	
5	13	0	
5	14	0	
5	15	0	
5	16	0	
5	17	0	
5	18	0	
5	19	0	
5	20	0	
5	21	0	
5	22	0	
5	23	0	
5	24	0	
5	25	0	
5	26	0	
5	27	0	
5	28	0	
5	29	0	
5	30	0	
5	31	0	
5	32	0	
5	33	0	
5	34	0	
5	35	0	
5	36	0	
5	37	0	
5	38	0	
5	39	0	
5	40	0	
5	41	0	
5	42	0	
5	43	0	
5	44	0	
5	45	0	
5	46	0	
5	47	0	
5	48	0	
5	49	0	
5	50	0	
5	51	0	
5	52	0	
5	53	0	
5	54	0	
5	55	0	
5	56	0	
5	57	0	
5	58	0	
5	59	0	
5	60	0	
5	61	0	
5	62	0	
5	63	0	
5	64	0	
5	65	0	
5	66	0	
5	67	0	
5	68	0	
5	69	0	
5	70	0	
5	71	0	
5	72	0	
5	73	0	
5	74	0	
5	75	0	
5	76	0	
5	77	0	
5	78	0	
5	79	0	
5	80	0	
5	81	0	
5	82	0	
5	83	0	
5	84	0	
5	85	0	
5	86	0	
5	87	0	
5	88	0	
5	89	0	
5	90	0	
5	91	0	
5	92	0	
5	93	0	
5	94	0	
5	95	0	
5	96	0	
5	97	0	
5	98	0	
5	99	0	
5	100	0	
6	0	0	
6	1	0	
6	2	0	
6	3	0	
6	4	0	
6	5	0	
6	6	0	
6	7	0	
6	8	0	
6	9	0	
6	10	0	
6	11	0	
6	12	0	
6	13	0	
6	14	0	
6	15	0	
6	16	0	
6	17	0	
6	18	0	
6	19	0	
6	20	0	
6	21	0	
6	22	0	
6	23	0	
6	24	0	
6	25	0	
6	26	0	
6	27	0	
6	28	0	
6	29	0	
6	30	0	
6	31	0	
6	32	0	
6	33	0	
6	34	0	
6	35	0	
6	36	0	
6	37	0	
6	38	0	
6	39	0	
6	40	0	
6	41	0	
6	42	0	
6	43	0	
6	44	0	
6	45	0	
6	46	0	
6	47	0	
6	48	0	
6	49	0	
6	50	0	
6	51	0	
6	52	0	
6	53	0	
6	54	0	
6	55	0	
6	56	0	
6	57	0	
6	58	0	
6	59	0	
6	60	0	
6	61	0	
6	62	0	
6	63	0	
6	64	0	
6	65	0	
6	66	0	
6	67	0	
6	68	0	
6	69	0	
6	70	0	
6	71	0	
6	72	0	
6	73	0	
6	74	0	
6	75	0	
6	76	0	
6	77	0	
6	78	0	
6	79	0	
6	80	0	
6	81	0	
6	82	0	
6	83	0	
6	84	0	
6	85	0	
6	86	0	
6	87	0	
6	88	0	
6	89	0	
6	90	0	
6	91	0	
6	92	0	
6	93	0	
6	94	0	
6	95	0	
6	96	0	
6	97	0	
6	98	0	
6	99	0	
6	100	0	
7	0	0	
7	1	0	
7	2	0	
7	3	0	
7	4	0	
7	5	0	
7	6	0	
7	7	0	
7	8	0	
7	9	0	
7	10	0	
7	11	0	
7	12	0	
7	13	0	
7	14	0	
7	15	0	
7	16	0	
7	17	0	
7	18	0	
7	19	0	
7	20	0	
7	21	0	
7	22	0	
7	23	0	
7	24	0	
7	25	0	
7	26	0	
7	27	0	
7	28	0	
7	29	0	
7	30	0	
7	31	0	
7	32	0	
7	33	0	
7	34	0	
7	35	0	
7	36	0	
7	37	0	
7	38	0	
7	39	0	
7	40	0	
7	41	0	
7	42	0	
7	43	0	
7	44	0	
7	45	0	
7	46	0	
7	47	0	
7	48	0	
7	49	0	
7	50	0	
7	51	0	
7	52	0	
7	53	0	
7	54	0	
7	55	0	
7	56	0	
7	57	0	
7	58	0	
7	59	0	
7	60	0	
7	61	0	
7	62	0	
7	63	0	
7	64	0	
7	65	0	
7	66	0	
7	67	0	
7	68	0	
7	69	0	
7	70	0	
7	71	0	
7	72	0	
7	73	0	
7	74	0	
7	75	0	
7	76	0	
7	77	0	
7	78	0	
7	79	0	
7	80	0	
7	81	0	
7	82	0	
7	83	0	
7	84	0	
7	85	0	
7	86	0	
7	87	0	
7	88	0	
7	89	0	
7	90	0	
7	91	0	
7	92	0	
7	93	0	
7	94	0	
7	95	0	
7	96	0	
7	97	0	
7	98	0	
7	99	0	
7	100	0	
8	0	0	
8	1	0	
8	2	0	
8	3	0	
8	4	0	
8	5	0	
8	6	0	
8	7	0	
8	8	0	
8	9	0	
8	10	0	
8	11	0	
8	12	0	
8	13	0	
8	14	0	
8	15	0	
8	16	0	
8	17	0	
8	18	0	
8	19	0	
8	20	0	
8	21	0	
8	22	0	
8	23	0	
8	24	0	
8	25	0	
8	26	0	
8	27	0	
8	28	0	
8	29	0	
8	30	0	
8	31	0	
8	32	0	
8	33	0	
8	34	0	
8	35	0	
8	36	0	
8	37	0	
8	38	0	
8	39	0	
8	40	0	
8	41	0	
8	42	0	
8	43	0	
8	44	0	
8	45	0	
8	46	0	
8	47	0	
8	48	0	
8	49	0	
8	50	0	
8	51	0	
8	52	0	
8	53	0	
8	54	0	
8	55	0	
8	56	0	
8	57	0	
8	58	0	
8	59	0	
8	60	0	
8	61	0	
8	62	0	
8	63	0	
8	64	0	
8	65	0	
8	66	0	
8	67	0	
8	68	0	
8	69	0	
8	70	0	
8	71	0	
8	72	0	
8	73	0	
8	74	0	
8	75	0	
8	76	0	
8	77	0	
8	78	0	
8	79	0	
8	80	0	
8	81	0	
8	82	0	
8	83	0	
8	84	0	
8	85	0	
8	86	0	
8	87	0	
8	88	0	
8	89	0	
8	90	0	
8	91	0	
8	92	0	
8	93	0	
8	94	0	
8	95	0	
8	96	0	
8	97	0	
8	98	0	
8	99	0	
8	100	0	
9	0	0	
9	1	0	
9	2	0	
9	3	0	
9	4	0	
9	5	0	
9	6	0	
9	7	0	
9	8	0	
9	9	0	
9	10	0	
9	11	0	
9	12	0	
9	13	0	
9	14	0	
9	15	0	
9	16	0	
9	17	0	
9	18	0	
9	19	0	
9	20	0	
9	21	0	
9	22	0	
9	23	0	
9	24	0	
9	25	0	
9	26	0	
9	27	0	
9	28	0	
9	29	0	
9	30	0	
9	31	0	
9	32	0	
9	33	0	
9	34	0	
9	35	0	
9	36	0	
9	37	0	
9	38	0	
9	39	0	
9	40	0	
9	41	0	
9	42	0	
9	43	0	
9	44	0	
9	45	0	
9	46	0	
9	47	0	
9	48	0	
9	49	0	
9	50	0	
9	51	0	
9	52	0	
9	53	0	
9	54	0	
9	55	0	
9	56	0	
9	57	0	
9	58	0	
9	59	0	
9	60	0	
9	61	0	
9	62	0	
9	63	0	
9	64	0	
9	65	0	
9	66	0	
9	67	0	
9	68	0	
9	69	0	
9	70	0	
9	71	0	
9	72	0	
9	73	0	
9	74	0	
9	75	0	
9	76	0	
9	77	0	
9	78	0	
9	79	0	
9	80	0	
9	81	0	
9	82	0	
9	83	0	
9	84	0	
9	85	0	
9	86	0	
9	87	0	
9	88	0	
9	89	0	
9	90	0	
9	91	0	
9	92	0	
9	93	0	
9	94	0	
9	95	0	
9	96	0	
9	97	0	
9	98	0	
9	99	0	
9	100	0	
10	0	0	
10	1	0	
10	2	0	
10	3	0	
10	4	0	
10	5	0	
10	6	0	
10	7	0	
10	8	0	
10	9	0	
10	10	0	
10	11	0	
10	12	0	
10	13	0	
10	14	0	
10	15	0	
10	16	0	
10	17	0	
10	18	0	
10	19	0	
10	20	0	
10	21	0	
10	22	0	
10	23	0	
10	24	0	
10	25	0	
10	26	0	
10	27	0	
10	28	0	
10	29	0	
10	30	0	
10	31	0	
10	32	0	
10	33	0	
10	34	0	
10	35	0	
10	36	0	
10	37	0	
10	38	0	
10	39	0	
10	40	0	
10	41	0	
10	42	0	
10	43	0	
10	44	0	
10	45	0	
10	46	0	
10	47	0	
10	48	0	
10	49	0	
10	50	0	
10	51	0	
10	52	0	
10	53	0	
10	54	0	
10	55	0	
10	56	0	
10	57	0	
10	58	0	
10	59	0	
10	60	0	
10	61	0	
10	62	0	
10	63	0	
10	64	0	
10	65	0	
10	66	0	
10	67	0	
10	68	0	
10	69	0	
10	70	0	
10	71	0	
10	72	0	
10	73	0	
10	74	0	
10	75	0	
10	76	0	
10	77	0	
10	78	0	
10	79	0	
10	80	0	
10	81	0	
10	82	0	
10	83	0	
10	84	0	
10	85	0	
10	86	0	
10	87	0	
10	88	0	
10	89	0	
10	90	0	
10	91	0	
10	92	0	
10	93	0	
10	94	0	
10	95	0	
10	96	0	
10	97	0	
10	98	0	
10	99	0	
10	100	0	
11	0	0	
11	1	0	
11	2	0	
11	3	0	
11	4	0	
11	5	0	
11	6	0	
11	7	0	
11	8	0	
11	9	0	
11	10	0	
11	11	0	
11	12	0	
11	13	0	
11	14	0	
11	15	0	
11	16	0	
11	17	0	
11	18	0	
11	19	0	
11	20	0	
11	21	0	
11	22	0	
11	23	0	
11	24	0	
11	25	0	
11	26	0	
11	27	0	
11	28	0	
11	29	0	
11	30	0	
11	31	0	
11	32	0	
11	33	0	
11	34	0	
11	35	0	
11	36	0	
11	37	0	
11	38	0	
11	39	0	
11	40	0	
11	41	0	
11	42	0	
11	43	0	
11	44	0	
11	45	0	
11	46	0	
11	47	0	
11	48	0	
11	49	0	
11	50	0	
11	51	0	
11	52	0	
11	53	0	
11	54	0	
11	55	0	
11	56	0	
11	57	0	
11	58	0	
11	59	0	
11	60	0	
11	61	0	
11	62	0	
11	63	0	
11	64	0	
11	65	0	
11	66	0	
11	67	0	
11	68	0	
11	69	0	
11	70	0	
11	71	0	
11	72	0	
11	73	0	
11	74	0	
11	75	0	
11	76	0	
11	77	0	
11	78	0	
11	79	0	
11	80	0	
11	81	0	
11	82	0	
11	83	0	
11	84	0	
11	85	0	
11	86	0	
11	87	0	
11	88	0	
11	89	0	
11	90	0	
11	91	0	
11	92	0	
11	93	0	
11	94	0	
11	95	0	
11	96	0	
11	97	0	
11	98	0	
11	99	0	
11	100	0	
12	0	0	
12	1	0	
12	2	0	
12	3	0	
12	4	0	
12	5	0	
12	6	0	
12	7	0	
12	8	0	
12	9	0	
12	10	0	
12	11	0	
12	12	0	
12	13	0	
[...]
POINT_DATA	10201
VECTORS d float
-1.38715e-017	-3.28502e-017	0	
-2.74704e-007	-2.88548e-007	0	
-4.60537e-007	-4.98817e-007	0	
-6.39134e-007	-6.70825e-007	0	
-8.07408e-007	-8.21342e-007	0	
-9.66948e-007	-9.56536e-007	0	
-1.11721e-006	-1.08104e-006	0	
-1.25842e-006	-1.19815e-006	0	
-1.39118e-006	-1.31015e-006	0	
-1.51627e-006	-1.41851e-006	0	
-1.63444e-006	-1.52417e-006	0	
-1.74635e-006	-1.62768e-006	0	
-1.85248e-006	-1.72937e-006	0	
-1.95321e-006	-1.82947e-006	0	
-2.04882e-006	-1.92816e-006	0	
-2.13956e-006	-2.02558e-006	0	
-2.22566e-006	-2.12184e-006	0	
-2.30736e-006	-2.21703e-006	0	
-2.38488e-006	-2.31118e-006	0	
-2.45845e-006	-2.4043e-006	0	
-2.52822e-006	-2.49631e-006	0	
-2.59432e-006	-2.58715e-006	0	
-2.6568e-006	-2.67673e-006	0	
-2.71566e-006	-2.76496e-006	0	
-2.77087e-006	-2.85179e-006	0	
-2.82236e-006	-2.93719e-006	0	
-2.87004e-006	-3.02115e-006	0	
-2.91384e-006	-3.10371e-006	0	
-2.95369e-006	-3.18493e-006	0	
-2.98956e-006	-3.26488e-006	0	
-3.02143e-006	-3.34364e-006	0	
-3.04931e-006	-3.42131e-006	0	
-3.07326e-006	-3.49796e-006	0	
-3.09333e-006	-3.57366e-006	0	
-3.10959e-006	-3.64848e-006	0	
-3.12213e-006	-3.72247e-006	0	
-3.13105e-006	-3.79567e-006	0	
-3.13646e-006	-3.86811e-006	0	
-3.13844e-006	-3.93981e-006	0	
-3.13712e-006	-4.01079e-006	0	
-3.13258e-006	-4.08103e-006	0	
-3.12495e-006	-4.15054e-006	0	
-3.11432e-006	-4.21931e-006	0	
-3.10078e-006	-4.2873e-006	0	
-3.08445e-006	-4.3545e-006	0	
-3.0654e-006	-4.42088e-006	0	
-3.04374e-006	-4.48638e-006	0	
-3.01954e-006	-4.55097e-006	0	
-2.99289e-006	-4.6146e-006	0	
-2.96387e-006	-4.67721e-006	0	
-2.93253e-006	-4.73874e-006	0	
-2.89896e-006	-4.79914e-006	0	
-2.86321e-006	-4.85834e-006	0	
-2.82534e-006	-4.91626e-006	0	
-2.78539e-006	-4.97284e-006	0	
-2.74341e-006	-5.028e-006	0	
-2.69944e-006	-5.08165e-006	0	
-2.6535e-006	-5.13373e-006	0	
-2.6056e-006	-5.18413e-006	0	
-2.55576e-006	-5.23278e-006	0	
-2.50398e-006	-5.27959e-006	0	
-2.45023e-006	-5.32447e-006	0	
-2.3945e-006	-5.36734e-006	0	
-2.33675e-006	-5.40812e-006	0	
-2.27693e-006	-5.44672e-006	0	
-2.21498e-006	-5.48308e-006	0	
-2.15083e-006	-5.51713e-006	0	
-2.08439e-006	-5.54881e-006	0	
-2.01559e-006	-5.57808e-006	0	
-1.94431e-006	-5.60489e-006	0	
-1.87046e-006	-5.62922e-006	0	
-1.79392e-006	-5.65105e-006	0	
-1.71458e-006	-5.67039e-006	0	
-1.63231e-006	-5.68724e-006	0	
-1.54701e-006	-5.70164e-006	0	
-1.45855e-006	-5.71362e-006	0	
-1.36681e-006	-5.72326e-006	0	
-1.27169e-006	-5.73062e-006	0	
-1.17308e-006	-5.73581e-006	0	
-1.07089e-006	-5.73893e-006	0	
-9.65033e-007	-5.74013e-006	0	
-8.55452e-007	-5.73954e-006	0	
-7.421e-007	-5.73733e-006	0	
-6.24953e-007	-5.73369e-006	0	
-5.04012e-007	-5.72882e-006	0	
-3.79308e-007	-5.72292e-006	0	
-2.50902e-007	-5.71623e-006	0	
-1.18893e-007	-5.70896e-006	0	
1.65857e-008	-5.70137e-006	0	
1.55357e-007	-5.69368e-006	0	
2.97201e-007	-5.68614e-006	0	
4.41852e-007	-5.67898e-006	0	
5.88997e-007	-5.67241e-006	0	
7.38277e-007	-5.66662e-006	0	
8.89284e-007	-5.66177e-006	0	
1.04157e-006	-5.65797e-006	0	
1.19466e-006	-5.65526e-006	0	
1.34806e-006	-5.65359e-006	0	
1.50131e-006	-5.65282e-006	0	
1.65407e-006	-5.65264e-006	0	
1.80635e-006	-5.65265e-006	0	
-4.16544e-018	-1.88299e-017	0	
-1.8281e-007	-1.65716e-007	0	
-3.86468e-007	-3.54279e-007	0	
-5.71779e-007	-5.23172e-007	0	
-7.46962e-007	-6.74989e-007	0	
-9.11232e-007	-8.1413e-007	0	
-1.06486e-006	-9.44122e-007	0	
-1.20843e-006	-1.06745e-006	0	
-1.3429e-006	-1.18582e-006	0	
-1.46929e-006	-1.30038e-006	0	
-1.5885e-006	-1.41194e-006	0	
-1.70129e-006	-1.52102e-006	0	
-1.80819e-006	-1.628e-006	0	
-1.9096e-006	-1.73314e-006	0	
-2.00583e-006	-1.83664e-006	0	
-2.09712e-006	-1.93866e-006	0	
-2.18373e-006	-2.03934e-006	0	
-2.2659e-006	-2.13876e-006	0	
-2.34389e-006	-2.23699e-006	0	
-2.41793e-006	-2.33402e-006	0	
-2.48821e-006	-2.42984e-006	0	
-2.55484e-006	-2.52441e-006	0	
-2.61789e-006	-2.61768e-006	0	
-2.67734e-006	-2.70961e-006	0	
-2.73316e-006	-2.80016e-006	0	
-2.78526e-006	-2.88931e-006	0	
-2.83355e-006	-2.97708e-006	0	
-2.87793e-006	-3.0635e-006	0	
-2.91834e-006	-3.1486e-006	0	
-2.95473e-006	-3.23245e-006	0	
-2.98709e-006	-3.31511e-006	0	
-3.01544e-006	-3.39665e-006	0	
-3.03982e-006	-3.47713e-006	0	
-3.06028e-006	-3.5566e-006	0	
-3.07693e-006	-3.63513e-006	0	
-3.08983e-006	-3.71274e-006	0	
-3.0991e-006	-3.78948e-006	0	
-3.10484e-006	-3.86536e-006	0	
-3.10716e-006	-3.94042e-006	0	
-3.10617e-006	-4.01465e-006	0	
-3.10197e-006	-4.08805e-006	0	
-3.09467e-006	-4.16063e-006	0	
-3.08438e-006	-4.23237e-006	0	
-3.0712e-006	-4.30325e-006	0	
-3.05522e-006	-4.37324e-006	0	
-3.03656e-006	-4.44232e-006	0	
-3.01529e-006	-4.51046e-006	0	
-2.99151e-006	-4.5776e-006	0	
-2.9653e-006	-4.6437e-006	0	
-2.93674e-006	-4.70872e-006	0	
-2.90589e-006	-4.7726e-006	0	
-2.87283e-006	-4.83529e-006	0	
-2.83762e-006	-4.89672e-006	0	
-2.80032e-006	-4.95683e-006	0	
-2.76097e-006	-5.01555e-006	0	
-2.71963e-006	-5.07281e-006	0	
-2.67632e-006	-5.12855e-006	0	
-2.63107e-006	-5.18268e-006	0	
-2.58391e-006	-5.23513e-006	0	
-2.53484e-006	-5.28583e-006	0	
-2.48386e-006	-5.33469e-006	0	
-2.43096e-006	-5.38164e-006	0	
-2.37611e-006	-5.42661e-006	0	
-2.31926e-006	-5.46952e-006	0	
-2.26038e-006	-5.51031e-006	0	
-2.19939e-006	-5.54891e-006	0	
-2.13623e-006	-5.58526e-006	0	
-2.0708e-006	-5.61933e-006	0	
-2.00302e-006	-5.65106e-006	0	
-1.93279e-006	-5.68042e-006	0	
-1.85999e-006	-5.7074e-006	0	
-1.7845e-006	-5.73197e-006	0	
-1.70621e-006	-5.75415e-006	0	
-1.62499e-006	-5.77395e-006	0	
-1.54071e-006	-5.7914e-006	0	
-1.45325e-006	-5.80653e-006	0	
-1.36249e-006	-5.8194e-006	0	
-1.26831e-006	-5.83009e-006	0	
-1.17059e-006	-5.83868e-006	0	
-1.06925e-006	-5.84527e-006	0	
-9.64186e-007	-5.84999e-006	0	
-8.55332e-007	-5.85295e-006	0	
-7.42636e-007	-5.85432e-006	0	
-6.26068e-007	-5.85425e-006	0	
-5.05624e-007	-5.85291e-006	0	
-3.81329e-007	-5.85049e-006	0	
-2.53241e-007	-5.84718e-006	0	
-1.21455e-007	-5.84318e-006	0	
1.38959e-008	-5.83869e-006	0	
1.52635e-007	-5.83392e-006	0	
2.9454e-007	-5.82907e-006	0	
4.39342e-007	-5.82432e-006	0	
5.86718e-007	-5.81985e-006	0	
7.36299e-007	-5.81582e-006	0	
8.87663e-007	-5.81235e-006	0	
1.04034e-006	-5.80954e-006	0	
1.19383e-006	-5.80742e-006	0	
1.34761e-006	-5.80599e-006	0	
1.50117e-006	-5.80518e-006	0	
1.65412e-006	-5.80486e-006	0	
1.80635e-006	-5.80481e-006	0	
-3.98791e-018	-1.42385e-017	0	
-1.4573e-007	-1.30216e-007	0	
-3.2675e-007	-2.72832e-007	0	
-5.13485e-007	-4.19273e-007	0	
-6.9112e-007	-5.59816e-007	0	
-8.57631e-007	-6.94302e-007	0	
-1.01286e-006	-8.2383e-007	0	
-1.15772e-006	-9.49165e-007	0	
-1.29327e-006	-1.07094e-006	0	
-1.4206e-006	-1.18969e-006	0	
-1.54069e-006	-1.30578e-006	0	
-1.65429e-006	-1.4195e-006	0	
-1.76197e-006	-1.5311e-006	0	
-1.86412e-006	-1.64077e-006	0	
-1.96101e-006	-1.74869e-006	0	
-2.05289e-006	-1.85501e-006	0	
-2.14003e-006	-1.9599e-006	0	
-2.2227e-006	-2.06344e-006	0	
-2.30117e-006	-2.1657e-006	0	
-2.37571e-006	-2.26669e-006	0	
-2.44651e-006	-2.36641e-006	0	
-2.5137e-006	-2.46482e-006	0	
-2.57733e-006	-2.56189e-006	0	
-2.6374e-006	-2.65759e-006	0	
-2.69384e-006	-2.75189e-006	0	
-2.74657e-006	-2.84479e-006	0	
-2.79547e-006	-2.9363e-006	0	
-2.84044e-006	-3.02646e-006	0	
-2.88141e-006	-3.11531e-006	0	
-2.91833e-006	-3.20291e-006	0	
-2.95119e-006	-3.28931e-006	0	
-2.98e-006	-3.37457e-006	0	
-3.00482e-006	-3.45874e-006	0	
-3.02571e-006	-3.54186e-006	0	
-3.04275e-006	-3.62399e-006	0	
-3.05604e-006	-3.70514e-006	0	
-3.06569e-006	-3.78535e-006	0	
-3.07179e-006	-3.86464e-006	0	
-3.07448e-006	-3.94303e-006	0	
-3.07384e-006	-4.02051e-006	0	
-3.07e-006	-4.09708e-006	0	
-3.06307e-006	-4.17276e-006	0	
-3.05315e-006	-4.24751e-006	0	
-3.04035e-006	-4.32134e-006	0	
-3.02478e-006	-4.3942e-006	0	
-3.00652e-006	-4.46608e-006	0	
-2.98568e-006	-4.53694e-006	0	
-2.96234e-006	-4.60674e-006	0	
-2.9366e-006	-4.67545e-006	0	
-2.90852e-006	-4.74301e-006	0	
-2.87818e-006	-4.80937e-006	0	
-2.84565e-006	-4.87449e-006	0	
-2.811e-006	-4.93831e-006	0	
-2.77428e-006	-5.00076e-006	0	
-2.73555e-006	-5.06179e-006	0	
-2.69484e-006	-5.12134e-006	0	
-2.65221e-006	-5.17933e-006	0	
-2.60767e-006	-5.23571e-006	0	
-2.56124e-006	-5.29039e-006	0	
-2.51294e-006	-5.34332e-006	0	
-2.46277e-006	-5.39442e-006	0	
-2.41069e-006	-5.44363e-006	0	
-2.3567e-006	-5.49087e-006	0	
-2.30075e-006	-5.53608e-006	0	
-2.24279e-006	-5.5792e-006	0	
-2.18275e-006	-5.62018e-006	0	
-2.12056e-006	-5.65896e-006	0	
-2.05612e-006	-5.69551e-006	0	
-1.98935e-006	-5.72978e-006	0	
-1.92013e-006	-5.76175e-006	0	
-1.84835e-006	-5.79139e-006	0	
-1.77389e-006	-5.81871e-006	0	
-1.69662e-006	-5.8437e-006	0	
-1.61642e-006	-5.86638e-006	0	
-1.53314e-006	-5.88677e-006	0	
-1.44667e-006	-5.90491e-006	0	
-1.35687e-006	-5.92085e-006	0	
-1.26361e-006	-5.93465e-006	0	
-1.16679e-006	-5.9464e-006	0	
-1.06628e-006	-5.95617e-006	0	
-9.62014e-007	-5.96408e-006	0	
-8.53895e-007	-5.97025e-006	0	
-7.41872e-007	-5.9748e-006	0	
-6.25908e-007	-5.97788e-006	0	
-5.05994e-007	-5.97963e-006	0	
-3.82151e-007	-5.98021e-006	0	
-2.54433e-007	-5.97981e-006	0	
-1.22933e-007	-5.97858e-006	0	
1.22171e-008	-5.97671e-006	0	
1.50841e-007	-5.97437e-006	0	
2.92715e-007	-5.97174e-006	0	
4.37566e-007	-5.96897e-006	0	
5.85068e-007	-5.96623e-006	0	
7.34842e-007	-5.96366e-006	0	
8.86457e-007	-5.96137e-006	0	
1.03943e-006	-5.95945e-006	0	
1.19325e-006	-5.95797e-006	0	
1.34737e-006	-5.95697e-006	0	
1.50126e-006	-5.95645e-006	0	
1.65444e-006	-5.95636e-006	0	
1.80653e-006	-5.9565e-006	0	
-3.16382e-018	-1.14465e-017	0	
-1.2389e-007	-1.0568e-007	0	
-2.90729e-007	-2.20609e-007	0	
-4.70931e-007	-3.40983e-007	0	
-6.45556e-007	-4.6474e-007	0	
-8.09864e-007	-5.9096e-007	0	
-9.641e-007	-7.17033e-007	0	
-1.10841e-006	-8.41821e-007	0	
-1.24377e-006	-9.65115e-007	0	
-1.37129e-006	-1.08655e-006	0	
-1.49177e-006	-1.20601e-006	0	
-1.60593e-006	-1.32351e-006	0	
-1.71426e-006	-1.43908e-006	0	
-1.8171e-006	-1.55276e-006	0	
-1.91463e-006	-1.66469e-006	0	
-2.00708e-006	-1.775e-006	0	
-2.0947e-006	-1.88386e-006	0	
-2.17781e-006	-1.99138e-006	0	
-2.25674e-006	-2.0976e-006	0	
-2.33175e-006	-2.20254e-006	0	
-2.40307e-006	-2.30618e-006	0	
-2.47082e-006	-2.40848e-006	0	
-2.53507e-006	-2.50939e-006	0	
-2.5958e-006	-2.60888e-006	0	
-2.65292e-006	-2.70693e-006	0	
-2.70631e-006	-2.80354e-006	0	
-2.75586e-006	-2.89873e-006	0	
-2.80145e-006	-2.99255e-006	0	
-2.843e-006	-3.08504e-006	0	
-2.88046e-006	-3.17627e-006	0	
-2.91382e-006	-3.26629e-006	0	
-2.9431e-006	-3.35516e-006	0	
-2.96836e-006	-3.44291e-006	0	
-2.98967e-006	-3.52959e-006	0	
-3.00712e-006	-3.61523e-006	0	
-3.0208e-006	-3.69986e-006	0	
-3.03084e-006	-3.7835e-006	0	
-3.03733e-006	-3.86616e-006	0	
-3.04039e-006	-3.94785e-006	0	
-3.04013e-006	-4.02858e-006	0	
-3.03668e-006	-4.10834e-006	0	
-3.03013e-006	-4.18714e-006	0	
-3.0206e-006	-4.26495e-006	0	
-3.00821e-006	-4.34177e-006	0	
-2.99305e-006	-4.41757e-006	0	
-2.97522e-006	-4.49233e-006	0	
-2.95482e-006	-4.56601e-006	0	
-2.93195e-006	-4.63857e-006	0	
-2.90668e-006	-4.70999e-006	0	
-2.8791e-006	-4.7802e-006	0	
-2.84929e-006	-4.84918e-006	0	
-2.81731e-006	-4.91687e-006	0	
-2.78322e-006	-4.98321e-006	0	
-2.7471e-006	-5.04816e-006	0	
-2.70899e-006	-5.11166e-006	0	
-2.66893e-006	-5.17364e-006	0	
-2.62698e-006	-5.23406e-006	0	
-2.58314e-006	-5.29284e-006	0	
-2.53746e-006	-5.34993e-006	0	
-2.48992e-006	-5.40526e-006	0	
-2.44055e-006	-5.45876e-006	0	
-2.38931e-006	-5.51037e-006	0	
-2.33618e-006	-5.56004e-006	0	
-2.28112e-006	-5.60769e-006	0	
-2.22407e-006	-5.65328e-006	0	
-2.16497e-006	-5.69676e-006	0	
-2.10374e-006	-5.73807e-006	0	
-2.04029e-006	-5.77718e-006	0	
-1.97452e-006	-5.81405e-006	0	
-1.90631e-006	-5.84867e-006	0	
-1.83555e-006	-5.881e-006	0	
-1.76211e-006	-5.91105e-006	0	
-1.68587e-006	-5.93882e-006	0	
-1.60668e-006	-5.96431e-006	0	
-1.52441e-006	-5.98755e-006	0	
-1.43892e-006	-6.00858e-006	0	
-1.35008e-006	-6.02742e-006	0	
-1.25777e-006	-6.04415e-006	0	
-1.16185e-006	-6.05883e-006	0	
-1.06221e-006	-6.07154e-006	0	
-9.5876e-007	-6.08237e-006	0	
-8.5141e-007	-6.09142e-006	0	
-7.40097e-007	-6.09882e-006	0	
-6.24781e-007	-6.10467e-006	0	
-5.05447e-007	-6.10913e-006	0	
-3.82111e-007	-6.11233e-006	0	
-2.54825e-007	-6.11441e-006	0	
-1.23677e-007	-6.11554e-006	0	
1.12035e-008	-6.11587e-006	0	
1.49641e-007	-6.11557e-006	0	
2.91412e-007	-6.11477e-006	0	
4.36242e-007	-6.11365e-006	0	
5.83804e-007	-6.11233e-006	0	
7.33717e-007	-6.11096e-006	0	
8.85546e-007	-6.10966e-006	0	
1.03881e-006	-6.10853e-006	0	
1.19297e-006	-6.10768e-006	0	
1.34748e-006	-6.10716e-006	0	
1.50176e-006	-6.10702e-006	0	
1.65525e-006	-6.10725e-006	0	
1.8073e-006	-6.1077e-006	0	
-2.24554e-018	-8.10813e-018	0	
-1.06478e-007	-7.85421e-008	0	
-2.72223e-007	-1.68927e-007	0	
-4.45834e-007	-2.6391e-007	0	
-6.09009e-007	-3.77133e-007	0	
-7.68974e-007	-4.97393e-007	0	
-9.19776e-007	-6.19115e-007	0	
-1.06123e-006	-7.43144e-007	0	
-1.19524e-006	-8.67288e-007	0	
-1.3221e-006	-9.9042e-007	0	
-1.44231e-006	-1.11245e-006	0	
-1.55663e-006	-1.23308e-006	0	
-1.66544e-006	-1.35205e-006	0	
-1.76887e-006	-1.4693e-006	0	
-1.86699e-006	-1.58484e-006	0	
-1.9599e-006	-1.69884e-006	0	
-2.04788e-006	-1.81147e-006	0	
-2.13133e-006	-1.92281e-006	0	
-2.21061e-006	-2.03292e-006	0	
-2.28604e-006	-2.14175e-006	0	
-2.35785e-006	-2.24928e-006	0	
-2.42619e-006	-2.35545e-006	0	
-2.4911e-006	-2.4602e-006	0	
-2.55254e-006	-2.56347e-006	0	
-2.6104e-006	-2.66525e-006	0	
-2.66454e-006	-2.76553e-006	0	
-2.71479e-006	-2.86434e-006	0	
-2.76105e-006	-2.96174e-006	0	
-2.8032e-006	-3.05779e-006	0	
-2.8412e-006	-3.15256e-006	0	
-2.87506e-006	-3.24611e-006	0	
-2.90481e-006	-3.33849e-006	0	
-2.9305e-006	-3.42975e-006	0	
-2.95223e-006	-3.51992e-006	0	
-2.97008e-006	-3.60902e-006	0	
-2.98416e-006	-3.69707e-006	0	
-2.99459e-006	-3.78409e-006	0	
-3.00146e-006	-3.87009e-006	0	
-3.00491e-006	-3.95508e-006	0	
-3.00504e-006	-4.03905e-006	0	
-3.00198e-006	-4.12201e-006	0	
-2.99582e-006	-4.20395e-006	0	
-2.9867e-006	-4.28487e-006	0	
-2.97471e-006	-4.36473e-006	0	
-2.95998e-006	-4.44353e-006	0	
-2.94259e-006	-4.52123e-006	0	
-2.92265e-006	-4.59782e-006	0	
-2.90024e-006	-4.67324e-006	0	
-2.87547e-006	-4.74746e-006	0	
-2.8484e-006	-4.82045e-006	0	
-2.81912e-006	-4.89215e-006	0	
-2.7877e-006	-4.96253e-006	0	
-2.75419e-006	-5.03153e-006	0	
-2.71867e-006	-5.09911e-006	0	
-2.68118e-006	-5.16521e-006	0	
-2.64178e-006	-5.22978e-006	0	
-2.6005e-006	-5.29277e-006	0	
-2.55738e-006	-5.35411e-006	0	
-2.51243e-006	-5.41374e-006	0	
-2.46567e-006	-5.47162e-006	0	
-2.41709e-006	-5.52767e-006	0	
-2.36668e-006	-5.58183e-006	0	
-2.31442e-006	-5.63405e-006	0	
-2.26025e-006	-5.68428e-006	0	
-2.20413e-006	-5.73245e-006	0	
-2.14597e-006	-5.77852e-006	0	
-2.08572e-006	-5.82245e-006	0	
-2.02326e-006	-5.86419e-006	0	
-1.95849e-006	-5.90373e-006	0	
-1.8913e-006	-5.94102e-006	0	
-1.82157e-006	-5.97606e-006	0	
-1.74917e-006	-6.00884e-006	0	
-1.67397e-006	-6.03934e-006	0	
-1.59581e-006	-6.06759e-006	0	
-1.51457e-006	-6.0936e-006	0	
-1.4301e-006	-6.1174e-006	0	
-1.34227e-006	-6.13901e-006	0	
-1.25092e-006	-6.1585e-006	0	
-1.15595e-006	-6.17592e-006	0	
-1.05722e-006	-6.19134e-006	0	
-9.5464e-007	-6.20484e-006	0	
-8.4811e-007	-6.21651e-006	0	
-7.37565e-007	-6.22645e-006	0	
-6.22956e-007	-6.23478e-006	0	
-5.04265e-007	-6.24161e-006	0	
-3.81503e-007	-6.24707e-006	0	
-2.54714e-007	-6.2513e-006	0	
-1.23984e-007	-6.25444e-006	0	
1.05624e-008	-6.25662e-006	0	
1.48752e-007	-6.25801e-006	0	
2.90365e-007	-6.25874e-006	0	
4.3513e-007	-6.25895e-006	0	
5.8272e-007	-6.2588e-006	0	
7.32756e-007	-6.25842e-006	0	
8.84805e-007	-6.25795e-006	0	
1.03838e-006	-6.25749e-006	0	
1.19295e-006	-6.25718e-006	0	
1.34795e-006	-6.25711e-006	0	
1.50275e-006	-6.25734e-006	0	
1.65668e-006	-6.25791e-006	0	
1.80897e-006	-6.25874e-006	0	
-6.30208e-018	-7.85312e-018	0	
-1.02378e-007	-2.71263e-008	0	
-2.71571e-007	-6.17578e-008	0	
-4.21196e-007	-1.76187e-007	0	
-5.77795e-007	-2.93296e-007	0	
-7.35799e-007	-4.04423e-007	0	
-8.77496e-007	-5.26706e-007	0	
-1.01608e-006	-6.51998e-007	0	
-1.14819e-006	-7.75914e-007	0	
-1.27329e-006	-9.00499e-007	0	
-1.39266e-006	-1.02468e-006	0	
-1.50667e-006	-1.14785e-006	0	
-1.61573e-006	-1.26993e-006	0	
-1.71975e-006	-1.39038e-006	0	
-1.81835e-006	-1.5092e-006	0	
-1.91155e-006	-1.62663e-006	0	
-1.9997e-006	-1.74285e-006	0	
-2.08331e-006	-1.85791e-006	0	
-2.16283e-006	-1.9718e-006	0	
-2.2386e-006	-2.08445e-006	0	
-2.31087e-006	-2.19582e-006	0	
-2.37979e-006	-2.30582e-006	0	
-2.4454e-006	-2.41437e-006	0	
-2.50763e-006	-2.52139e-006	0	
-2.56632e-006	-2.62685e-006	0	
-2.62129e-006	-2.73075e-006	0	
-2.67233e-006	-2.83311e-006	0	
-2.71929e-006	-2.93402e-006	0	
-2.76207e-006	-3.03356e-006	0	
-2.80063e-006	-3.1318e-006	0	
-2.83499e-006	-3.22881e-006	0	
-2.86519e-006	-3.32466e-006	0	
-2.8913e-006	-3.41936e-006	0	
-2.91343e-006	-3.51296e-006	0	
-2.93168e-006	-3.60548e-006	0	
-2.94615e-006	-3.69691e-006	0	
-2.95696e-006	-3.78729e-006	0	
-2.96422e-006	-3.87661e-006	0	
-2.96805e-006	-3.96487e-006	0	
-2.96856e-006	-4.05209e-006	0	
-2.96588e-006	-4.13826e-006	0	
-2.96012e-006	-4.22337e-006	0	
-2.9514e-006	-4.30741e-006	0	
-2.93983e-006	-4.39037e-006	0	
-2.92552e-006	-4.47223e-006	0	
-2.90857e-006	-4.55295e-006	0	
-2.88909e-006	-4.63251e-006	0	
-2.86716e-006	-4.71087e-006	0	
-2.84289e-006	-4.788e-006	0	
-2.81634e-006	-4.86386e-006	0	
-2.78759e-006	-4.9384e-006	0	
-2.75673e-006	-5.01158e-006	0	
-2.72381e-006	-5.08336e-006	0	
-2.68889e-006	-5.15369e-006	0	
-2.65203e-006	-5.22252e-006	0	
-2.61327e-006	-5.28981e-006	0	
-2.57267e-006	-5.35549e-006	0	
-2.53026e-006	-5.41952e-006	0	
-2.48605e-006	-5.48184e-006	0	
-2.44006e-006	-5.5424e-006	0	
-2.39229e-006	-5.60112e-006	0	
-2.34272e-006	-5.65796e-006	0	
-2.29133e-006	-5.71286e-006	0	
-2.23806e-006	-5.76576e-006	0	
-2.18287e-006	-5.81662e-006	0	
-2.12569e-006	-5.86538e-006	0	
-2.06642e-006	-5.912e-006	0	
-2.00497e-006	-5.95645e-006	0	
-1.94123e-006	-5.99868e-006	0	
-1.87509e-006	-6.03869e-006	0	
-1.80642e-006	-6.07644e-006	0	
-1.73509e-006	-6.11193e-006	0	
-1.66096e-006	-6.14515e-006	0	
-1.58388e-006	-6.1761e-006	0	
-1.50372e-006	-6.2048e-006	0	
-1.42031e-006	-6.23127e-006	0	
-1.33352e-006	-6.25554e-006	0	
-1.24321e-006	-6.27764e-006	0	
-1.14924e-006	-6.29763e-006	0	
-1.05149e-006	-6.31557e-006	0	
-9.49838e-007	-6.33153e-006	0	
-8.44199e-007	-6.34558e-006	0	
-7.34493e-007	-6.35782e-006	0	
-6.20666e-007	-6.36835e-006	0	
-5.02692e-007	-6.37728e-006	0	
-3.80575e-007	-6.38471e-006	0	
-2.54355e-007	-6.39079e-006	0	
-1.24109e-007	-6.39563e-006	0	
1.00417e-008	-6.39938e-006	0	
1.47932e-007	-6.40217e-006	0	
2.89346e-007	-6.40415e-006	0	
4.34018e-007	-6.40546e-006	0	
5.81627e-007	-6.40625e-006	0	
7.318e-007	-6.40667e-006	0	
8.84106e-007	-6.40685e-006	0	
1.03806e-006	-6.40694e-006	0	
1.19313e-006	-6.40708e-006	0	
1.34873e-006	-6.40738e-006	0	
1.5042e-006	-6.40794e-006	0	
1.65882e-006	-6.40883e-006	0	
1.81171e-006	-6.41007e-006	0	
-1.04016e-017	-1.24666e-017	0	
-1.33143e-007	-2.70049e-008	0	
-3.05298e-007	-7.34209e-008	0	
-4.11627e-007	-1.19301e-007	0	
-5.54018e-007	-1.72071e-007	0	
-6.97893e-007	-3.1433e-007	0	
-8.35698e-007	-4.45778e-007	0	
-9.75294e-007	-5.63969e-007	0	
-1.10086e-006	-6.90134e-007	0	
-1.22545e-006	-8.16999e-007	0	
-1.34323e-006	-9.414e-007	0	
-1.4558e-006	-1.06742e-006	0	
-1.56533e-006	-1.19245e-006	0	
-1.67e-006	-1.31578e-006	0	
-1.76895e-006	-1.43764e-006	0	
-1.86215e-006	-1.5584e-006	0	
-1.95021e-006	-1.67814e-006	0	
-2.0338e-006	-1.79683e-006	0	
-2.11343e-006	-1.91441e-006	0	
-2.18945e-006	-2.03076e-006	0	
-2.26212e-006	-2.14586e-006	0	
-2.33161e-006	-2.25961e-006	0	
-2.39797e-006	-2.37191e-006	0	
-2.46108e-006	-2.48264e-006	0	
-2.52073e-006	-2.59173e-006	0	
-2.57663e-006	-2.69918e-006	0	
-2.62854e-006	-2.80503e-006	0	
-2.67626e-006	-2.90939e-006	0	
-2.71969e-006	-3.01235e-006	0	
-2.75881e-006	-3.11402e-006	0	
-2.79365e-006	-3.21446e-006	0	
-2.82428e-006	-3.31372e-006	0	
-2.8508e-006	-3.41184e-006	0	
-2.87331e-006	-3.50884e-006	0	
-2.89194e-006	-3.60473e-006	0	
-2.90678e-006	-3.69953e-006	0	
-2.91796e-006	-3.79323e-006	0	
-2.9256e-006	-3.88585e-006	0	
-2.9298e-006	-3.97739e-006	0	
-2.93069e-006	-4.06785e-006	0	
-2.92839e-006	-4.15723e-006	0	
-2.92301e-006	-4.24553e-006	0	
-2.91468e-006	-4.33274e-006	0	
-2.90351e-006	-4.41883e-006	0	
-2.88962e-006	-4.5038e-006	0	