# vtk DataFile Version 4.1
vtk output
ASCII
DATASET UNSTRUCTURED_GRID

POINTS	40400	float
25	-25	0	
25	-24.5	0	
25	-24	0	
25	-23.5	0	
25	-23	0	
25	-22.5	0	
25	-22	0	
25	-21.5	0	
25	-21	0	
25	-20.5	0	
25	-20	0	
25	-19.5	0	
25	-19	0	
25	-18.5	0	
25	-18	0	
25	-17.5	0	
25	-17	0	
25	-16.5	0	
25	-16	0	
25	-15.5	0	
25	-15	0	
25	-14.5	0	
25	-14	0	
25	-13.5	0	
25	-13	0	
25	-12.5	0	
25	-12	0	
25	-11.5	0	
25	-11	0	
25	-10.5	0	
25	-10	0	
25	-9.5	0	
25	-9	0	
25	-8.5	0	
25	-8	0	
25	-7.5	0	
25	-7	0	
25	-6.5	0	
25	-6	0	
25	-5.5	0	
25	-5	0	
25	-4.5	0	
25	-4	0	
25	-3.5	0	
25	-3	0	
25	-2.5	0	
25	-2	0	
25	-1.5	0	
25	-1	0	
25	-0.5	0	
25	0	0	
25	0.5	0	
25	1	0	
25	1.5	0	
25	2	0	
25	2.5	0	
25	3	0	
25	3.5	0	
25	4	0	
25	4.5	0	
25	5	0	
25	5.5	0	
25	6	0	
25	6.5	0	
25	7	0	
25	7.5	0	
25	8	0	
25	8.5	0	
25	9	0	
25	9.5	0	
25	10	0	
25	10.5	0	
25	11	0	
25	11.5	0	
25	12	0	
25	12.5	0	
25	13	0	
25	13.5	0	
25	14	0	
25	14.5	0	
25	15	0	
25	15.5	0	
25	16	0	
25	16.5	0	
25	17	0	
25	17.5	0	
25	18	0	
25	18.5	0	
25	19	0	
25	19.5	0	
25	20	0	
25	20.5	0	
25	21	0	
25	21.5	0	
25	22	0	
25	22.5	0	
25	23	0	
25	23.5	0	
25	24	0	
25	24.5	0	
25	25	0	
24.5	25	0	
24	25	0	
23.5	25	0	
23	25	0	
22.5	25	0	
22	25	0	
21.5	25	0	
21	25	0	
20.5	25	0	
20	25	0	
19.5	25	0	
19	25	0	
18.5	25	0	
18	25	0	
17.5	25	0	
17	25	0	
16.5	25	0	
16	25	0	
15.5	25	0	
15	25	0	
14.5	25	0	
14	25	0	
13.5	25	0	
13	25	0	
12.5	25	0	
12	25	0	
11.5	25	0	
11	25	0	
10.5	25	0	
10	25	0	
9.5	25	0	
9	25	0	
8.5	25	0	
8	25	0	
7.5	25	0	
7	25	0	
6.5	25	0	
6	25	0	
5.5	25	0	
5	25	0	
4.5	25	0	
4	25	0	
3.5	25	0	
3	25	0	
2.5	25	0	
2	25	0	
1.5	25	0	
1	25	0	
0.5	25	0	
0	25	0	
-0.5	25	0	
-1	25	0	
-1.5	25	0	
-2	25	0	
-2.5	25	0	
-3	25	0	
-3.5	25	0	
-4	25	0	
-4.5	25	0	
-5	25	0	
-5.5	25	0	
-6	25	0	
-6.5	25	0	
-7	25	0	
-7.5	25	0	
-8	25	0	
-8.5	25	0	
-9	25	0	
-9.5	25	0	
-10	25	0	
-10.5	25	0	
-11	25	0	
-11.5	25	0	
-12	25	0	
-12.5	25	0	
-13	25	0	
-13.5	25	0	
-14	25	0	
-14.5	25	0	
-15	25	0	
-15.5	25	0	
-16	25	0	
-16.5	25	0	
-17	25	0	
-17.5	25	0	
-18	25	0	
-18.5	25	0	
-19	25	0	
-19.5	25	0	
-20	25	0	
-20.5	25	0	
-21	25	0	
-21.5	25	0	
-22	25	0	
-22.5	25	0	
-23	25	0	
-23.5	25	0	
-24	25	0	
-24.5	25	0	
-25	25	0	
-25	24.5	0	
-25	24	0	
-25	23.5	0	
-25	23	0	
-25	22.5	0	
-25	22	0	
-25	21.5	0	
-25	21	0	
-25	20.5	0	
-25	20	0	
-25	19.5	0	
-25	19	0	
-25	18.5	0	
-25	18	0	
-25	17.5	0	
-25	17	0	
-25	16.5	0	
-25	16	0	
-25	15.5	0	
-25	15	0	
-25	14.5	0	
-25	14	0	
-25	13.5	0	
-25	13	0	
-25	12.5	0	
-25	12	0	
-25	11.5	0	
-25	11	0	
-25	10.5	0	
-25	10	0	
-25	9.5	0	
-25	9	0	
-25	8.5	0	
-25	8	0	
-25	7.5	0	
-25	7	0	
-25	6.5	0	
-25	6	0	
-25	5.5	0	
-25	5	0	
-25	4.5	0	
-25	4	0	
-25	3.5	0	
-25	3	0	
-25	2.5	0	
-25	2	0	
-25	1.5	0	
-25	1	0	
-25	0.5	0	
-25	0	0	
-25	-0.5	0	
-25	-1	0	
-25	-1.5	0	
-25	-2	0	
-25	-2.5	0	
-25	-3	0	
-25	-3.5	0	
-25	-4	0	
-25	-4.5	0	
-25	-5	0	
-25	-5.5	0	
-25	-6	0	
-25	-6.5	0	
-25	-7	0	
-25	-7.5	0	
-25	-8	0	
-25	-8.5	0	
-25	-9	0	
-25	-9.5	0	
-25	-10	0	
-25	-10.5	0	
-25	-11	0	
-25	-11.5	0	
-25	-12	0	
-25	-12.5	0	
-25	-13	0	
-25	-13.5	0	
-25	-14	0	
-25	-14.5	0	
-25	-15	0	
-25	-15.5	0	
-25	-16	0	
-25	-16.5	0	
-25	-17	0	
-25	-17.5	0	
-25	-18	0	
-25	-18.5	0	
-25	-19	0	
-25	-19.5	0	
-25	-20	0	
-25	-20.5	0	
-25	-21	0	
-25	-21.5	0	
-25	-22	0	
-25	-22.5	0	
-25	-23	0	
-25	-23.5	0	
-25	-24	0	
-25	-24.5	0	
-25	-25	0	
-24.5	-25	0	
-24	-25	0	
-23.5	-25	0	
-23	-25	0	
-22.5	-25	0	
-22	-25	0	
-21.5	-25	0	
-21	-25	0	
-20.5	-25	0	
-20	-25	0	
-19.5	-25	0	
-19	-25	0	
-18.5	-25	0	
-18	-25	0	
-17.5	-25	0	
-17	-25	0	
-16.5	-25	0	
-16	-25	0	
-15.5	-25	0	
-15	-25	0	
-14.5	-25	0	
-14	-25	0	
-13.5	-25	0	
-13	-25	0	
-12.5	-25	0	
-12	-25	0	
-11.5	-25	0	
-11	-25	0	
-10.5	-25	0	
-10	-25	0	
-9.5	-25	0	
-9	-25	0	
-8.5	-25	0	
-8	-25	0	
-7.5	-25	0	
-7	-25	0	
-6.5	-25	0	
-6	-25	0	
-5.5	-25	0	
-5	-25	0	
-4.5	-25	0	
-4	-25	0	
-3.5	-25	0	
-3	-25	0	
-2.5	-25	0	
-2	-25	0	
-1.5	-25	0	
-1	-25	0	
-0.5	-25	0	
0	-25	0	
0.5	-25	0	
1	-25	0	
1.5	-25	0	
2	-25	0	
2.5	-25	0	
3	-25	0	
3.5	-25	0	
4	-25	0	
4.5	-25	0	
5	-25	0	
5.5	-25	0	
6	-25	0	
6.5	-25	0	
7	-25	0	
7.5	-25	0	
8	-25	0	
8.5	-25	0	
9	-25	0	
9.5	-25	0	
10	-25	0	
10.5	-25	0	
11	-25	0	
11.5	-25	0	
12	-25	0	
12.5	-25	0	
13	-25	0	
13.5	-25	0	
14	-25	0	
14.5	-25	0	
15	-25	0	
15.5	-25	0	
16	-25	0	
16.5	-25	0	
17	-25	0	
17.5	-25	0	
18	-25	0	
18.5	-25	0	
19	-25	0	
19.5	-25	0	
20	-25	0	
20.5	-25	0	
21	-25	0	
21.5	-25	0	
22	-25	0	
22.5	-25	0	
23	-25	0	
23.5	-25	0	
24	-25	0	
24.5	-25	0	
25.5	-25.5	0	
25.5	-24.99	0	
25.5	-24.48	0	
25.5	-23.97	0	
25.5	-23.46	0	
25.5	-22.95	0	
25.5	-22.44	0	
25.5	-21.93	0	
25.5	-21.42	0	
25.5	-20.91	0	
25.5	-20.4	0	
25.5	-19.89	0	
25.5	-19.38	0	
25.5	-18.87	0	
25.5	-18.36	0	
25.5	-17.85	0	
25.5	-17.34	0	
25.5	-16.83	0	
25.5	-16.32	0	
25.5	-15.81	0	
25.5	-15.3	0	
25.5	-14.79	0	
25.5	-14.28	0	
25.5	-13.77	0	
25.5	-13.26	0	
25.5	-12.75	0	
25.5	-12.24	0	
25.5	-11.73	0	
25.5	-11.22	0	
25.5	-10.71	0	
25.5	-10.2	0	
25.5	-9.69	0	
25.5	-9.18	0	
25.5	-8.67	0	
25.5	-8.16	0	
25.5	-7.65	0	
25.5	-7.14	0	
25.5	-6.63	0	
25.5	-6.12	0	
25.5	-5.61	0	
25.5	-5.1	0	
25.5	-4.59	0	
25.5	-4.08	0	
25.5	-3.57	0	
25.5	-3.06	0	
25.5	-2.55	0	
25.5	-2.04	0	
25.5	-1.53	0	
25.5	-1.02	0	
25.5	-0.51	0	
25.5	0	0	
25.5	0.51	0	
25.5	1.02	0	
25.5	1.53	0	
25.5	2.04	0	
25.5	2.55	0	
25.5	3.06	0	
25.5	3.57	0	
25.5	4.08	0	
25.5	4.59	0	
25.5	5.1	0	
25.5	5.61	0	
25.5	6.12	0	
25.5	6.63	0	
25.5	7.14	0	
25.5	7.65	0	
25.5	8.16	0	
25.5	8.67	0	
25.5	9.18	0	
25.5	9.69	0	
25.5	10.2	0	
25.5	10.71	0	
25.5	11.22	0	
25.5	11.73	0	
25.5	12.24	0	
25.5	12.75	0	
25.5	13.26	0	
25.5	13.77	0	
25.5	14.28	0	
25.5	14.79	0	
25.5	15.3	0	
25.5	15.81	0	
25.5	16.32	0	
25.5	16.83	0	
25.5	17.34	0	
25.5	17.85	0	
25.5	18.36	0	
25.5	18.87	0	
25.5	19.38	0	
25.5	19.89	0	
25.5	20.4	0	
25.5	20.91	0	
25.5	21.42	0	
25.5	21.93	0	
25.5	22.44	0	
25.5	22.95	0	
25.5	23.46	0	
25.5	23.97	0	
25.5	24.48	0	
25.5	24.99	0	
25.5	25.5	0	
24.99	25.5	0	
24.48	25.5	0	
23.97	25.5	0	
23.46	25.5	0	
22.95	25.5	0	
22.44	25.5	0	
21.93	25.5	0	
21.42	25.5	0	
20.91	25.5	0	
20.4	25.5	0	
19.89	25.5	0	
19.38	25.5	0	
18.87	25.5	0	
18.36	25.5	0	
17.85	25.5	0	
17.34	25.5	0	
16.83	25.5	0	
16.32	25.5	0	
15.81	25.5	0	
15.3	25.5	0	
14.79	25.5	0	
14.28	25.5	0	
13.77	25.5	0	
13.26	25.5	0	
12.75	25.5	0	
12.24	25.5	0	
11.73	25.5	0	
11.22	25.5	0	
10.71	25.5	0	
10.2	25.5	0	
9.69	25.5	0	
9.18	25.5	0	
8.67	25.5	0	
8.16	25.5	0	
7.65	25.5	0	
7.14	25.5	0	
6.63	25.5	0	
6.12	25.5	0	
5.61	25.5	0	
5.1	25.5	0	
4.59	25.5	0	
4.08	25.5	0	
3.57	25.5	0	
3.06	25.5	0	
2.55	25.5	0	
2.04	25.5	0	
1.53	25.5	0	
1.02	25.5	0	
0.51	25.5	0	
0	25.5	0	
-0.51	25.5	0	
-1.02	25.5	0	
-1.53	25.5	0	
-2.04	25.5	0	
-2.55	25.5	0	
-3.06	25.5	0	
-3.57	25.5	0	
-4.08	25.5	0	
-4.59	25.5	0	
-5.1	25.5	0	
-5.61	25.5	0	
-6.12	25.5	0	
-6.63	25.5	0	
-7.14	25.5	0	
-7.65	25.5	0	
-8.16	25.5	0	
-8.67	25.5	0	
-9.18	25.5	0	
-9.69	25.5	0	
-10.2	25.5	0	
-10.71	25.5	0	
-11.22	25.5	0	
-11.73	25.5	0	
-12.24	25.5	0	
-12.75	25.5	0	
-13.26	25.5	0	
-13.77	25.5	0	
-14.28	25.5	0	
-14.79	25.5	0	
-15.3	25.5	0	
-15.81	25.5	0	
-16.32	25.5	0	
-16.83	25.5	0	
-17.34	25.5	0	
-17.85	25.5	0	
-18.36	25.5	0	
-18.87	25.5	0	
-19.38	25.5	0	
-19.89	25.5	0	
-20.4	25.5	0	
-20.91	25.5	0	
-21.42	25.5	0	
-21.93	25.5	0	
-22.44	25.5	0	
-22.95	25.5	0	
-23.46	25.5	0	
-23.97	25.5	0	
-24.48	25.5	0	
-24.99	25.5	0	
-25.5	25.5	0	
-25.5	24.99	0	
-25.5	24.48	0	
-25.5	23.97	0	
-25.5	23.46	0	
-25.5	22.95	0	
-25.5	22.44	0	
-25.5	21.93	0	
-25.5	21.42	0	
-25.5	20.91	0	
-25.5	20.4	0	
-25.5	19.89	0	
-25.5	19.38	0	
-25.5	18.87	0	
-25.5	18.36	0	
-25.5	17.85	0	
-25.5	17.34	0	
-25.5	16.83	0	
-25.5	16.32	0	
-25.5	15.81	0	
-25.5	15.3	0	
-25.5	14.79	0	
-25.5	14.28	0	
-25.5	13.77	0	
-25.5	13.26	0	
-25.5	12.75	0	
-25.5	12.24	0	
-25.5	11.73	0	
-25.5	11.22	0	
-25.5	10.71	0	
-25.5	10.2	0	
-25.5	9.69	0	
-25.5	9.18	0	
-25.5	8.67	0	
-25.5	8.16	0	
-25.5	7.65	0	
-25.5	7.14	0	
-25.5	6.63	0	
-25.5	6.12	0	
-25.5	5.61	0	
-25.5	5.1	0	
-25.5	4.59	0	
-25.5	4.08	0	
-25.5	3.57	0	
-25.5	3.06	0	
-25.5	2.55	0	
-25.5	2.04	0	
-25.5	1.53	0	
-25.5	1.02	0	
-25.5	0.51	0	
-25.5	0	0	
-25.5	-0.51	0	
-25.5	-1.02	0	
-25.5	-1.53	0	
-25.5	-2.04	0	
-25.5	-2.55	0	
-25.5	-3.06	0	
-25.5	-3.57	0	
-25.5	-4.08	0	
-25.5	-4.59	0	
-25.5	-5.1	0	
-25.5	-5.61	0	
-25.5	-6.12	0	
-25.5	-6.63	0	
-25.5	-7.14	0	
-25.5	-7.65	0	
-25.5	-8.16	0	
-25.5	-8.67	0	
-25.5	-9.18	0	
-25.5	-9.69	0	
-25.5	-10.2	0	
-25.5	-10.71	0	
-25.5	-11.22	0	
-25.5	-11.73	0	
-25.5	-12.24	0	
-25.5	-12.75	0	
-25.5	-13.26	0	
-25.5	-13.77	0	
-25.5	-14.28	0	
-25.5	-14.79	0	
-25.5	-15.3	0	
-25.5	-15.81	0	
-25.5	-16.32	0	
-25.5	-16.83	0	
-25.5	-17.34	0	
-25.5	-17.85	0	
-25.5	-18.36	0	
-25.5	-18.87	0	
-25.5	-19.38	0	
-25.5	-19.89	0	
-25.5	-20.4	0	
-25.5	-20.91	0	
-25.5	-21.42	0	
-25.5	-21.93	0	
-25.5	-22.44	0	
-25.5	-22.95	0	
-25.5	-23.46	0	
-25.5	-23.97	0	
-25.5	-24.48	0	
-25.5	-24.99	0	
-25.5	-25.5	0	
-24.99	-25.5	0	
-24.48	-25.5	0	
-23.97	-25.5	0	
-23.46	-25.5	0	
-22.95	-25.5	0	
-22.44	-25.5	0	
-21.93	-25.5	0	
-21.42	-25.5	0	
-20.91	-25.5	0	
-20.4	-25.5	0	
-19.89	-25.5	0	
-19.38	-25.5	0	
-18.87	-25.5	0	
-18.36	-25.5	0	
-17.85	-25.5	0	
-17.34	-25.5	0	
-16.83	-25.5	0	
-16.32	-25.5	0	
-15.81	-25.5	0	
-15.3	-25.5	0	
-14.79	-25.5	0	
-14.28	-25.5	0	
-13.77	-25.5	0	
-13.26	-25.5	0	
-12.75	-25.5	0	
-12.24	-25.5	0	
-11.73	-25.5	0	
-11.22	-25.5	0	
-10.71	-25.5	0	
-10.2	-25.5	0	
-9.69	-25.5	0	
-9.18	-25.5	0	
-8.67	-25.5	0	
-8.16	-25.5	0	
-7.65	-25.5	0	
-7.14	-25.5	0	
-6.63	-25.5	0	
-6.12	-25.5	0	
-5.61	-25.5	0	
-5.1	-25.5	0	
-4.59	-25.5	0	
-4.08	-25.5	0	
-3.57	-25.5	0	
-3.06	-25.5	0	
-2.55	-25.5	0	
-2.04	-25.5	0	
-1.53	-25.5	0	
-1.02	-25.5	0	
-0.51	-25.5	0	
0	-25.5	0	
0.51	-25.5	0	
1.02	-25.5	0	
1.53	-25.5	0	
2.04	-25.5	0	
2.55	-25.5	0	
3.06	-25.5	0	
3.57	-25.5	0	
4.08	-25.5	0	
4.59	-25.5	0	
5.1	-25.5	0	
5.61	-25.5	0	
6.12	-25.5	0	
6.63	-25.5	0	
7.14	-25.5	0	
7.65	-25.5	0	
8.16	-25.5	0	
8.67	-25.5	0	
9.18	-25.5	0	
9.69	-25.5	0	
10.2	-25.5	0	
10.71	-25.5	0	
11.22	-25.5	0	
11.73	-25.5	0	
12.24	-25.5	0	
12.75	-25.5	0	
13.26	-25.5	0	
13.77	-25.5	0	
14.28	-25.5	0	
14.79	-25.5	0	
15.3	-25.5	0	
15.81	-25.5	0	
16.32	-25.5	0	
16.83	-25.5	0	
17.34	-25.5	0	
17.85	-25.5	0	
18.36	-25.5	0	
18.87	-25.5	0	
19.38	-25.5	0	
19.89	-25.5	0	
20.4	-25.5	0	
[...]
POINT_DATA	40400
VECTORS d float
1.88351e-016	1.88351e-016	0	
5.58374e-017	3.4892e-017	0	
4.98258e-017	4.39343e-017	0	
4.5183e-017	4.21704e-017	0	
4.16372e-017	3.97545e-017	0	
3.87721e-017	3.75884e-017	0	
3.63376e-017	3.57647e-017	0	
3.41714e-017	3.4224e-017	0	
3.21587e-017	3.28911e-017	0	
3.021e-017	3.1698e-017	0	
2.82465e-017	3.05861e-017	0	
2.61897e-017	2.95029e-017	0	
2.39511e-017	2.83981e-017	0	
2.14201e-017	2.722e-017	0	
1.84455e-017	2.59119e-017	0	
1.48059e-017	2.44105e-017	0	
1.01548e-017	2.26471e-017	0	
3.90349e-018	2.05609e-017	0	
-5.00883e-018	1.81703e-017	0	
-1.9535e-017	1.56323e-017	0	
-4.53056e-017	1.47783e-017	0	
-1.00188e-016	3.58028e-017	0	
-2.45319e-016	8.57615e-017	0	
-2.57154e-016	9.5147e-017	0	
-1.05666e-016	9.47545e-017	0	
-6.21358e-017	6.27588e-017	0	
-4.31814e-017	5.63493e-017	0	
-3.23062e-017	5.12135e-017	0	
-2.54869e-017	4.89101e-017	0	
-2.08118e-017	4.73892e-017	0	
-1.74518e-017	4.63995e-017	0	
-1.49294e-017	4.5744e-017	0	
-1.29617e-017	4.53088e-017	0	
-1.13729e-017	4.50205e-017	0	
-1.00504e-017	4.4829e-017	0	
-8.92098e-018	4.47012e-017	0	
-7.9356e-018	4.46147e-017	0	
-7.06082e-018	4.45545e-017	0	
-6.27332e-018	4.45108e-017	0	
-5.55631e-018	4.44774e-017	0	
-4.89738e-018	4.44503e-017	0	
-4.28699e-018	4.44271e-017	0	
-3.7175e-018	4.44067e-017	0	
-3.18256e-018	4.43884e-017	0	
-2.67667e-018	4.43721e-017	0	
-2.19495e-018	4.43578e-017	0	
-1.73292e-018	4.43457e-017	0	
-1.28637e-018	4.4336e-017	0	
-8.51273e-019	4.43289e-017	0	
-4.23752e-019	4.43245e-017	0	
2.86582e-027	4.43231e-017	0	
4.23752e-019	4.43245e-017	0	
8.51273e-019	4.43289e-017	0	
1.28637e-018	4.4336e-017	0	
1.73292e-018	4.43457e-017	0	
2.19495e-018	4.43578e-017	0	
2.67667e-018	4.43721e-017	0	
3.18256e-018	4.43884e-017	0	
3.7175e-018	4.44067e-017	0	
4.28699e-018	4.44271e-017	0	
4.89738e-018	4.44503e-017	0	
5.55631e-018	4.44774e-017	0	
6.27332e-018	4.45108e-017	0	
7.06082e-018	4.45545e-017	0	
7.9356e-018	4.46147e-017	0	
8.92098e-018	4.47012e-017	0	
1.00504e-017	4.4829e-017	0	
1.13729e-017	4.50205e-017	0	
1.29617e-017	4.53088e-017	0	
1.49294e-017	4.5744e-017	0	
1.74518e-017	4.63995e-017	0	
2.08118e-017	4.73892e-017	0	
2.54869e-017	4.89101e-017	0	
3.23062e-017	5.12135e-017	0	
4.31814e-017	5.63493e-017	0	
6.21358e-017	6.27588e-017	0	
1.05666e-016	9.47545e-017	0	
2.57154e-016	9.5147e-017	0	
2.45319e-016	8.57615e-017	0	
1.00188e-016	3.58028e-017	0	
4.53056e-017	1.47783e-017	0	
1.9535e-017	1.56323e-017	0	
5.00883e-018	1.81703e-017	0	
-3.90349e-018	2.05609e-017	0	
-1.01548e-017	2.26471e-017	0	
-1.48059e-017	2.44105e-017	0	
-1.84455e-017	2.59119e-017	0	
-2.14201e-017	2.722e-017	0	
-2.39511e-017	2.83981e-017	0	
-2.61897e-017	2.95029e-017	0	
-2.82465e-017	3.05861e-017	0	
-3.021e-017	3.1698e-017	0	
-3.21587e-017	3.28911e-017	0	
-3.41714e-017	3.4224e-017	0	
-3.63376e-017	3.57647e-017	0	
-3.87721e-017	3.75884e-017	0	
-4.16372e-017	3.97545e-017	0	
-4.5183e-017	4.21704e-017	0	
-4.98258e-017	4.39343e-017	0	
-5.58374e-017	3.4892e-017	0	
-1.88351e-016	1.88351e-016	0	
-3.4892e-017	5.58374e-017	0	
-4.39343e-017	4.98258e-017	0	
-4.21704e-017	4.5183e-017	0	
-3.97545e-017	4.16372e-017	0	
-3.75884e-017	3.87721e-017	0	
-3.57647e-017	3.63376e-017	0	
-3.4224e-017	3.41714e-017	0	
-3.28911e-017	3.21587e-017	0	
-3.1698e-017	3.021e-017	0	
-3.05861e-017	2.82465e-017	0	
-2.95029e-017	2.61897e-017	0	
-2.83981e-017	2.39511e-017	0	
-2.722e-017	2.14201e-017	0	
-2.59119e-017	1.84455e-017	0	
-2.44105e-017	1.48059e-017	0	
-2.26471e-017	1.01548e-017	0	
-2.05609e-017	3.90349e-018	0	
-1.81703e-017	-5.00883e-018	0	
-1.56323e-017	-1.9535e-017	0	
-1.47783e-017	-4.53056e-017	0	
-3.58028e-017	-1.00188e-016	0	
-8.57615e-017	-2.45319e-016	0	
-9.5147e-017	-2.57154e-016	0	
-9.47545e-017	-1.05666e-016	0	
-6.27588e-017	-6.21358e-017	0	
-5.63493e-017	-4.31814e-017	0	
-5.12135e-017	-3.23062e-017	0	
-4.89101e-017	-2.54869e-017	0	
-4.73892e-017	-2.08118e-017	0	
-4.63995e-017	-1.74518e-017	0	
-4.5744e-017	-1.49294e-017	0	
-4.53088e-017	-1.29617e-017	0	
-4.50205e-017	-1.13729e-017	0	
-4.4829e-017	-1.00504e-017	0	
-4.47012e-017	-8.92098e-018	0	
-4.46147e-017	-7.9356e-018	0	
-4.45545e-017	-7.06082e-018	0	
-4.45108e-017	-6.27332e-018	0	
-4.44774e-017	-5.55631e-018	0	
-4.44503e-017	-4.89738e-018	0	
-4.44271e-017	-4.28699e-018	0	
-4.44067e-017	-3.7175e-018	0	
-4.43884e-017	-3.18256e-018	0	
-4.43721e-017	-2.67667e-018	0	
-4.43578e-017	-2.19495e-018	0	
-4.43457e-017	-1.73292e-018	0	
-4.4336e-017	-1.28637e-018	0	
-4.43289e-017	-8.51273e-019	0	
-4.43245e-017	-4.23752e-019	0	
-4.43231e-017	2.71798e-027	0	
-4.43245e-017	4.23752e-019	0	
-4.43289e-017	8.51273e-019	0	
-4.4336e-017	1.28637e-018	0	
-4.43457e-017	1.73292e-018	0	
-4.43578e-017	2.19495e-018	0	
-4.43721e-017	2.67667e-018	0	
-4.43884e-017	3.18256e-018	0	
-4.44067e-017	3.7175e-018	0	
-4.44271e-017	4.28699e-018	0	
-4.44503e-017	4.89738e-018	0	
-4.44774e-017	5.55631e-018	0	
-4.45108e-017	6.27332e-018	0	
-4.45545e-017	7.06082e-018	0	
-4.46147e-017	7.9356e-018	0	
-4.47012e-017	8.92098e-018	0	
-4.4829e-017	1.00504e-017	0	
-4.50205e-017	1.13729e-017	0	
-4.53088e-017	1.29617e-017	0	
-4.5744e-017	1.49294e-017	0	
-4.63995e-017	1.74518e-017	0	
-4.73892e-017	2.08118e-017	0	
-4.89101e-017	2.54869e-017	0	
-5.12135e-017	3.23062e-017	0	
-5.63493e-017	4.31814e-017	0	
-6.27588e-017	6.21358e-017	0	
-9.47545e-017	1.05666e-016	0	
-9.5147e-017	2.57154e-016	0	
-8.57615e-017	2.45319e-016	0	
-3.58028e-017	1.00188e-016	0	
-1.47783e-017	4.53056e-017	0	
-1.56323e-017	1.9535e-017	0	
-1.81703e-017	5.00883e-018	0	
-2.05609e-017	-3.90349e-018	0	
-2.26471e-017	-1.01548e-017	0	
-2.44105e-017	-1.48059e-017	0	
-2.59119e-017	-1.84455e-017	0	
-2.722e-017	-2.14201e-017	0	
-2.83981e-017	-2.39511e-017	0	
-2.95029e-017	-2.61897e-017	0	
-3.05861e-017	-2.82465e-017	0	
-3.1698e-017	-3.021e-017	0	
-3.28911e-017	-3.21587e-017	0	
-3.4224e-017	-3.41714e-017	0	
-3.57647e-017	-3.63376e-017	0	
-3.75884e-017	-3.87721e-017	0	
-3.97545e-017	-4.16372e-017	0	
-4.21704e-017	-4.5183e-017	0	
-4.39343e-017	-4.98258e-017	0	
-3.4892e-017	-5.58374e-017	0	
-1.88351e-016	-1.88351e-016	0	
-5.58374e-017	-3.4892e-017	0	
-4.98258e-017	-4.39343e-017	0	
-4.5183e-017	-4.21704e-017	0	
-4.16372e-017	-3.97545e-017	0	
-3.87721e-017	-3.75884e-017	0	
-3.63376e-017	-3.57647e-017	0	
-3.41714e-017	-3.4224e-017	0	
-3.21587e-017	-3.28911e-017	0	
-3.021e-017	-3.1698e-017	0	
-2.82465e-017	-3.05861e-017	0	
-2.61897e-017	-2.95029e-017	0	
-2.39511e-017	-2.83981e-017	0	
-2.14201e-017	-2.722e-017	0	
-1.84455e-017	-2.59119e-017	0	
-1.48059e-017	-2.44105e-017	0	
-1.01548e-017	-2.26471e-017	0	
-3.90349e-018	-2.05609e-017	0	
5.00883e-018	-1.81703e-017	0	
1.9535e-017	-1.56323e-017	0	
4.53056e-017	-1.47783e-017	0	
1.00188e-016	-3.58028e-017	0	
2.45319e-016	-8.57615e-017	0	
2.57154e-016	-9.5147e-017	0	
1.05666e-016	-9.47545e-017	0	
6.21358e-017	-6.27588e-017	0	
4.31814e-017	-5.63493e-017	0	
3.23062e-017	-5.12135e-017	0	
2.54869e-017	-4.89101e-017	0	
2.08118e-017	-4.73892e-017	0	
1.74518e-017	-4.63995e-017	0	
1.49294e-017	-4.5744e-017	0	
1.29617e-017	-4.53088e-017	0	
1.13729e-017	-4.50205e-017	0	
1.00504e-017	-4.4829e-017	0	
8.92098e-018	-4.47012e-017	0	
7.9356e-018	-4.46147e-017	0	
7.06082e-018	-4.45545e-017	0	
6.27332e-018	-4.45108e-017	0	
5.55631e-018	-4.44774e-017	0	
4.89738e-018	-4.44503e-017	0	
4.28699e-018	-4.44271e-017	0	
3.7175e-018	-4.44067e-017	0	
3.18256e-018	-4.43884e-017	0	
2.67667e-018	-4.43721e-017	0	
2.19495e-018	-4.43578e-017	0	
1.73292e-018	-4.43457e-017	0	
1.28637e-018	-4.4336e-017	0	
8.51273e-019	-4.43289e-017	0	
4.23752e-019	-4.43245e-017	0	
-2.81509e-027	-4.43231e-017	0	
-4.23752e-019	-4.43245e-017	0	
-8.51273e-019	-4.43289e-017	0	
-1.28637e-018	-4.4336e-017	0	
-1.73292e-018	-4.43457e-017	0	
-2.19495e-018	-4.43578e-017	0	
-2.67667e-018	-4.43721e-017	0	
-3.18256e-018	-4.43884e-017	0	
-3.7175e-018	-4.44067e-017	0	
-4.28699e-018	-4.44271e-017	0	
-4.89738e-018	-4.44503e-017	0	
-5.55631e-018	-4.44774e-017	0	
-6.27332e-018	-4.45108e-017	0	
-7.06082e-018	-4.45545e-017	0	
-7.9356e-018	-4.46147e-017	0	
-8.92098e-018	-4.47012e-017	0	
-1.00504e-017	-4.4829e-017	0	
-1.13729e-017	-4.50205e-017	0	
-1.29617e-017	-4.53088e-017	0	
-1.49294e-017	-4.5744e-017	0	
-1.74518e-017	-4.63995e-017	0	
-2.08118e-017	-4.73892e-017	0	
-2.54869e-017	-4.89101e-017	0	
-3.23062e-017	-5.12135e-017	0	
-4.31814e-017	-5.63493e-017	0	
-6.21358e-017	-6.27588e-017	0	
-1.05666e-016	-9.47545e-017	0	
-2.57154e-016	-9.5147e-017	0	
-2.45319e-016	-8.57615e-017	0	
-1.00188e-016	-3.58028e-017	0	
-4.53056e-017	-1.47783e-017	0	
-1.9535e-017	-1.56323e-017	0	
-5.00883e-018	-1.81703e-017	0	
3.90349e-018	-2.05609e-017	0	
1.01548e-017	-2.26471e-017	0	
1.48059e-017	-2.44105e-017	0	
1.84455e-017	-2.59119e-017	0	
2.14201e-017	-2.722e-017	0	
2.39511e-017	-2.83981e-017	0	
2.61897e-017	-2.95029e-017	0	
2.82465e-017	-3.05861e-017	0	
3.021e-017	-3.1698e-017	0	
3.21587e-017	-3.28911e-017	0	
3.41714e-017	-3.4224e-017	0	
3.63376e-017	-3.57647e-017	0	
3.87721e-017	-3.75884e-017	0	
4.16372e-017	-3.97545e-017	0	
4.5183e-017	-4.21704e-017	0	
4.98258e-017	-4.39343e-017	0	
5.58374e-017	-3.4892e-017	0	
1.88351e-016	-1.88351e-016	0	
3.4892e-017	-5.58374e-017	0	
4.39343e-017	-4.98258e-017	0	
4.21704e-017	-4.5183e-017	0	
3.97545e-017	-4.16372e-017	0	
3.75884e-017	-3.87721e-017	0	
3.57647e-017	-3.63376e-017	0	
3.4224e-017	-3.41714e-017	0	
3.28911e-017	-3.21587e-017	0	
3.1698e-017	-3.021e-017	0	
3.05861e-017	-2.82465e-017	0	
2.95029e-017	-2.61897e-017	0	
2.83981e-017	-2.39511e-017	0	
2.722e-017	-2.14201e-017	0	
2.59119e-017	-1.84455e-017	0	
2.44105e-017	-1.48059e-017	0	
2.26471e-017	-1.01548e-017	0	
2.05609e-017	-3.90349e-018	0	
1.81703e-017	5.00883e-018	0	
1.56323e-017	1.9535e-017	0	
1.47783e-017	4.53056e-017	0	
3.58028e-017	1.00188e-016	0	
8.57615e-017	2.45319e-016	0	
9.5147e-017	2.57154e-016	0	
9.47545e-017	1.05666e-016	0	
6.27588e-017	6.21358e-017	0	
5.63493e-017	4.31814e-017	0	
5.12135e-017	3.23062e-017	0	
4.89101e-017	2.54869e-017	0	
4.73892e-017	2.08118e-017	0	
4.63995e-017	1.74518e-017	0	
4.5744e-017	1.49294e-017	0	
4.53088e-017	1.29617e-017	0	
4.50205e-017	1.13729e-017	0	
4.4829e-017	1.00504e-017	0	
4.47012e-017	8.92098e-018	0	
4.46147e-017	7.9356e-018	0	
4.45545e-017	7.06082e-018	0	
4.45108e-017	6.27332e-018	0	
4.44774e-017	5.55631e-018	0	
4.44503e-017	4.89738e-018	0	
4.44271e-017	4.28699e-018	0	
4.44067e-017	3.7175e-018	0	
4.43884e-017	3.18256e-018	0	
4.43721e-017	2.67667e-018	0	
4.43578e-017	2.19495e-018	0	
4.43457e-017	1.73292e-018	0	
4.4336e-017	1.28637e-018	0	
4.43289e-017	8.51273e-019	0	
4.43245e-017	4.23752e-019	0	
4.43231e-017	-2.93293e-027	0	
4.43245e-017	-4.23752e-019	0	
4.43289e-017	-8.51273e-019	0	
4.4336e-017	-1.28637e-018	0	
4.43457e-017	-1.73292e-018	0	
4.43578e-017	-2.19495e-018	0	
4.43721e-017	-2.67667e-018	0	
4.43884e-017	-3.18256e-018	0	
4.44067e-017	-3.7175e-018	0	
4.44271e-017	-4.28699e-018	0	
4.44503e-017	-4.89738e-018	0	
4.44774e-017	-5.55631e-018	0	
4.45108e-017	-6.27332e-018	0	
4.45545e-017	-7.06082e-018	0	
4.46147e-017	-7.9356e-018	0	
4.47012e-017	-8.92098e-018	0	
4.4829e-017	-1.00504e-017	0	
4.50205e-017	-1.13729e-017	0	
4.53088e-017	-1.29617e-017	0	
4.5744e-017	-1.49294e-017	0	
4.63995e-017	-1.74518e-017	0	
4.73892e-017	-2.08118e-017	0	
4.89101e-017	-2.54869e-017	0	
5.12135e-017	-3.23062e-017	0	
5.63493e-017	-4.31814e-017	0	
6.27588e-017	-6.21358e-017	0	
9.47545e-017	-1.05666e-016	0	
9.5147e-017	-2.57154e-016	0	
8.57615e-017	-2.45319e-016	0	
3.58028e-017	-1.00188e-016	0	
1.47783e-017	-4.53056e-017	0	
1.56323e-017	-1.9535e-017	0	
1.81703e-017	-5.00883e-018	0	
2.05609e-017	3.90349e-018	0	
2.26471e-017	1.01548e-017	0	
2.44105e-017	1.48059e-017	0	
2.59119e-017	1.84455e-017	0	
2.722e-017	2.14201e-017	0	
2.83981e-017	2.39511e-017	0	
2.95029e-017	2.61897e-017	0	
3.05861e-017	2.82465e-017	0	
3.1698e-017	3.021e-017	0	
3.28911e-017	3.21587e-017	0	
3.4224e-017	3.41714e-017	0	
3.57647e-017	3.63376e-017	0	
3.75884e-017	3.87721e-017	0	
3.97545e-017	4.16372e-017	0	
4.21704e-017	4.5183e-017	0	
4.39343e-017	4.98258e-017	0	
3.4892e-017	5.58374e-017	0	
4.18836e-006	4.18836e-006	0	
2.01826e-006	3.12691e-006	0	
1.27276e-006	2.35816e-006	0	
9.36197e-007	1.92989e-006	0	
7.60001e-007	1.67422e-006	0	
6.53832e-007	1.50785e-006	0	
5.81234e-007	1.39045e-006	0	
5.26184e-007	1.30185e-006	0	
4.81025e-007	1.23127e-006	0	
4.41715e-007	1.17241e-006	0	
4.05839e-007	1.12128e-006	0	
3.71732e-007	1.07509e-006	0	
3.38038e-007	1.03169e-006	0	
3.03441e-007	9.89316e-007	0	
2.66435e-007	9.46419e-007	0	
2.25044e-007	9.016e-007	0	
1.76349e-007	8.53754e-007	0	
1.1561e-007	8.02587e-007	0	
3.41302e-008	7.50351e-007	0	
-8.51013e-008	7.0685e-007	0	
-3.01413e-007	7.17477e-007	0	
-6.63005e-007	8.40359e-007	0	
-2.15745e-006	1.13443e-006	0	
-3.67273e-006	1.2126e-006	0	
-1.55289e-006	1.34307e-006	0	
-8.12511e-007	1.58019e-006	0	
-4.85197e-007	1.53005e-006	0	
-3.45672e-007	1.49103e-006	0	
-2.62124e-007	1.45333e-006	0	
-2.08588e-007	1.42368e-006	0	
-1.71612e-007	1.40122e-006	0	
-1.44662e-007	1.38452e-006	0	
-1.24069e-007	1.37216e-006	0	
-1.07678e-007	1.36291e-006	0	
-9.41889e-008	1.35584e-006	0	
-8.27838e-008	1.35029e-006	0	
-7.29331e-008	1.34578e-006	0	
-6.42832e-008	1.34198e-006	0	
-5.659e-008	1.33869e-006	0	
-4.96784e-008	1.33576e-006	0	
-4.34173e-008	1.33312e-006	0	
-3.77041e-008	1.33072e-006	0	
-3.24552e-008	1.32855e-006	0	
-2.75996e-008	1.3266e-006	0	
-2.30749e-008	1.32488e-006	0	
-1.88254e-008	1.3234e-006	0	
-1.47995e-008	1.32216e-006	0	
-1.0949e-008	1.32119e-006	0	
-7.2281e-009	1.32049e-006	0	
-3.59283e-009	1.32006e-006	0	
2.4507e-017	1.31992e-006	0	
3.59283e-009	1.32006e-006	0	
7.2281e-009	1.32049e-006	0	
1.0949e-008	1.32119e-006	0	
1.47995e-008	1.32216e-006	0	
1.88254e-008	1.3234e-006	0	
2.30749e-008	1.32488e-006	0	
2.75996e-008	1.3266e-006	0	
3.24552e-008	1.32855e-006	0	
3.77041e-008	1.33072e-006	0	
4.34173e-008	1.33312e-006	0	
4.96784e-008	1.33576e-006	0	
5.659e-008	1.33869e-006	0	
6.42832e-008	1.34198e-006	0	
7.29331e-008	1.34578e-006	0	
8.27838e-008	1.35029e-006	0	
9.41889e-008	1.35584e-006	0	
1.07678e-007	1.36291e-006	0	
1.24069e-007	1.37216e-006	0	
1.44662e-007	1.38452e-006	0	
1.71612e-007	1.40122e-006	0	
2.08588e-007	1.42368e-006	0	
2.62124e-007	1.45333e-006	0	
3.45672e-007	1.49103e-006	0	
4.85197e-007	1.53005e-006	0	
8.12511e-007	1.58019e-006	0	
1.55289e-006	1.34307e-006	0	
3.67273e-006	1.2126e-006	0	
2.15745e-006	1.13443e-006	0	
6.63005e-007	8.40359e-007	0	
3.01413e-007	7.17477e-007	0	
8.51013e-008	7.0685e-007	0	
-3.41302e-008	7.50351e-007	0	
-1.1561e-007	8.02587e-007	0	
-1.76349e-007	8.53754e-007	0	
-2.25044e-007	9.016e-007	0	
-2.66435e-007	9.46419e-007	0	
-3.03441e-007	9.89316e-007	0	
-3.38038e-007	1.03169e-006	0	
-3.71732e-007	1.07509e-006	0	
-4.05839e-007	1.12128e-006	0	
-4.41715e-007	1.17241e-006	0	
-4.81025e-007	1.23127e-006	0	
-5.26184e-007	1.30185e-006	0	
-5.81234e-007	1.39045e-006	0	
-6.53832e-007	1.50785e-006	0	
-7.60001e-007	1.67422e-006	0	
-9.36197e-007	1.92989e-006	0	
-1.27276e-006	2.35816e-006	0	
-2.01826e-006	3.12691e-006	0	
-4.18836e-006	4.18836e-006	0	
-3.12691e-006	2.01826e-006	0	
-2.35816e-006	1.27276e-006	0	
-1.92989e-006	9.36197e-007	0	
-1.67422e-006	7.60001e-007	0	
-1.50785e-006	6.53832e-007	0	
-1.39045e-006	5.81234e-007	0	
-1.30185e-006	5.26184e-007	0	
-1.23127e-006	4.81025e-007	0	
-1.17241e-006	4.41715e-007	0	
-1.12128e-006	4.05839e-007	0	
-1.07509e-006	3.71732e-007	0	
-1.03169e-006	3.38038e-007	0	
-9.89316e-007	3.03441e-007	0	
-9.46419e-007	2.66435e-007	0	
-9.016e-007	2.25044e-007	0	
-8.53754e-007	1.76349e-007	0	
-8.02587e-007	1.1561e-007	0	
-7.50351e-007	3.41302e-008	0	
-7.0685e-007	-8.51013e-008	0	
-7.17477e-007	-3.01413e-007	0	
-8.40359e-007	-6.63005e-007	0	
-1.13443e-006	-2.15745e-006	0	
-1.2126e-006	-3.67273e-006	0	
-1.34307e-006	-1.55289e-006	0	
-1.58019e-006	-8.12511e-007	0	
-1.53005e-006	-4.85197e-007	0	
-1.49103e-006	-3.45672e-007	0	
-1.45333e-006	-2.62124e-007	0	
-1.42368e-006	-2.08588e-007	0	
-1.40122e-006	-1.71612e-007	0	
-1.38452e-006	-1.44662e-007	0	
-1.37216e-006	-1.24069e-007	0	
-1.36291e-006	-1.07678e-007	0	
-1.35584e-006	-9.41889e-008	0	
-1.35029e-006	-8.27838e-008	0	
-1.34578e-006	-7.29331e-008	0	
-1.34198e-006	-6.42832e-008	0	
-1.33869e-006	-5.659e-008	0	
-1.33576e-006	-4.96784e-008	0	
-1.33312e-006	-4.34173e-008	0	
-1.33072e-006	-3.77041e-008	0	
-1.32855e-006	-3.24552e-008	0	
-1.3266e-006	-2.75996e-008	0	
-1.32488e-006	-2.30749e-008	0	
-1.3234e-006	-1.88254e-008	0	
-1.32216e-006	-1.47995e-008	0	
-1.32119e-006	-1.0949e-008	0	
-1.32049e-006	-7.2281e-009	0	
-1.32006e-006	-3.59283e-009	0	
-1.31992e-006	2.32347e-017	0	
-1.32006e-006	3.59283e-009	0	
-1.32049e-006	7.2281e-009	0	
-1.32119e-006	1.0949e-008	0	
-1.32216e-006	1.47995e-008	0	
-1.3234e-006	1.88254e-008	0	
-1.32488e-006	2.30749e-008	0	
-1.3266e-006	2.75996e-008	0	
-1.32855e-006	3.24552e-008	0	
-1.33072e-006	3.77041e-008	0	
-1.33312e-006	4.34173e-008	0	
-1.33576e-006	4.96784e-008	0	
-1.33869e-006	5.659e-008	0	
-1.34198e-006	6.42832e-008	0	
-1.34578e-006	7.29331e-008	0	
-1.35029e-006	8.27838e-008	0	
-1.35584e-006	9.41889e-008	0	
-1.36291e-006	1.07678e-007	0	
-1.37216e-006	1.24069e-007	0	
-1.38452e-006	1.44662e-007	0	
-1.40122e-006	1.71612e-007	0	
-1.42368e-006	2.08588e-007	0	
-1.45333e-006	2.62124e-007	0	
-1.49103e-006	3.45672e-007	0	
-1.53005e-006	4.85197e-007	0	
-1.58019e-006	8.12511e-007	0	
-1.34307e-006	1.55289e-006	0	
-1.2126e-006	3.67273e-006	0	
-1.13443e-006	2.15745e-006	0	
-8.40359e-007	6.63005e-007	0	
-7.17477e-007	3.01413e-007	0	
-7.0685e-007	8.51013e-008	0	
-7.50351e-007	-3.41302e-008	0	
-8.02587e-007	-1.1561e-007	0	
-8.53754e-007	-1.76349e-007	0	
-9.016e-007	-2.25044e-007	0	
-9.46419e-007	-2.66435e-007	0	
-9.89316e-007	-3.03441e-007	0	
-1.03169e-006	-3.38038e-007	0	
-1.07509e-006	-3.71732e-007	0	
-1.12128e-006	-4.05839e-007	0	
-1.17241e-006	-4.41715e-007	0	
-1.23127e-006	-4.81025e-007	0	
-1.30185e-006	-5.26184e-007	0	
-1.39045e-006	-5.81234e-007	0	
-1.50785e-006	-6.53832e-007	0	
-1.67422e-006	-7.60001e-007	0	
-1.92989e-006	-9.36197e-007	0	
-2.35816e-006	-1.27276e-006	0	
-3.12691e-006	-2.01826e-006	0	
-4.18836e-006	-4.18836e-006	0	
-2.01826e-006	-3.12691e-006	0	
-1.27276e-006	-2.35816e-006	0	
-9.36197e-007	-1.92989e-006	0	
-7.60001e-007	-1.67422e-006	0	
-6.53832e-007	-1.50785e-006	0	
-5.81234e-007	-1.39045e-006	0	
-5.26184e-007	-1.30185e-006	0	
-4.81025e-007	-1.23127e-006	0	
-4.41715e-007	-1.17241e-006	0	
-4.05839e-007	-1.12128e-006	0	
-3.71732e-007	-1.07509e-006	0	
-3.38038e-007	-1.03169e-006	0	
-3.03441e-007	-9.89316e-007	0	
-2.66435e-007	-9.46419e-007	0	
-2.25044e-007	-9.016e-007	0	
-1.76349e-007	-8.53754e-007	0	
-1.1561e-007	-8.02587e-007	0	
-3.41302e-008	-7.50351e-007	0	
8.51013e-008	-7.0685e-007	0	
3.01413e-007	-7.17477e-007	0	
6.63005e-007	-8.40359e-007	0	
2.15745e-006	-1.13443e-006	0	
3.67273e-006	-1.2126e-006	0	
1.55289e-006	-1.34307e-006	0	
8.12511e-007	-1.58019e-006	0	
4.85197e-007	-1.53005e-006	0	
3.45672e-007	-1.49103e-006	0	
2.62124e-007	-1.45333e-006	0	
2.08588e-007	-1.42368e-006	0	
1.71612e-007	-1.40122e-006	0	
1.44662e-007	-1.38452e-006	0	
1.24069e-007	-1.37216e-006	0	
1.07678e-007	-1.36291e-006	0	
9.41889e-008	-1.35584e-006	0	
8.27838e-008	-1.35029e-006	0	
7.29331e-008	-1.34578e-006	0	
6.42832e-008	-1.34198e-006	0	
5.659e-008	-1.33869e-006	0	
4.96784e-008	-1.33576e-006	0	
4.34173e-008	-1.33312e-006	0	
3.77041e-008	-1.33072e-006	0	
3.24552e-008	-1.32855e-006	0	
2.75996e-008	-1.3266e-006	0	
2.30749e-008	-1.32488e-006	0	
1.88254e-008	-1.3234e-006	0	
1.47995e-008	-1.32216e-006	0	
1.0949e-008	-1.32119e-006	0	
7.2281e-009	-1.32049e-006	0	
3.59283e-009	-1.32006e-006	0	
-2.41681e-017	-1.31992e-006	0	
-3.59283e-009	-1.32006e-006	0	
-7.2281e-009	-1.32049e-006	0	
-1.0949e-008	-1.32119e-006	0	
-1.47995e-008	-1.32216e-006	0	
-1.88254e-008	-1.3234e-006	0	
-2.30749e-008	-1.32488e-006	0	
-2.75996e-008	-1.3266e-006	0	
-3.24552e-008	-1.32855e-006	0	
-3.77041e-008	-1.33072e-006	0	
-4.34173e-008	-1.33312e-006	0	
-4.96784e-008	-1.33576e-006	0	
-5.659e-008	-1.33869e-006	0	
-6.42832e-008	-1.34198e-006	0	
-7.29331e-008	-1.34578e-006	0	
-8.27838e-008	-1.35029e-006	0	
-9.41889e-008	-1.35584e-006	0	
-1.07678e-007	-1.36291e-006	0	
-1.24069e-007	-1.37216e-006	0	
-1.44662e-007	-1.38452e-006	0	