# vtk DataFile Version 4.1
vtk output
ASCII
DATASET UNSTRUCTURED_GRID

POINTS	79	float
0	3	0	
0	2.75	0	
0	2.5	0	
0	2.25	0	
0	2	0	
0.75	3	0	
0.75	2.75	0	
0.75	2.5	0	
0.75	2.25	0	
0.75	2	0	
1.5	3	0	
1.5	2.75	0	
1.5	2.5	0	
1.5	2.25	0	
1.5	2	0	
1.75	3	0	
1.75	2.75	0	
1.75	2.5	0	
1.75	2.25	0	
1.75	2	0	
2	3	0	
2	2.75	0	
2	2.5	0	
2	2.25	0	
2	2	0	
2	1.75	0	
2	1.5	0	
2	1.25	0	
2	1	0	
2	0.5	0	
2	0	0	
2.375	3	0	
2.375	2.75	0	
2.375	2.25	0	
2.375	2	0	
2.375	1.75	0	
2.375	1.5	0	
2.375	1.25	0	
2.375	1	0	
2.375	0.5	0	
2.375	0	0	
2.75	3	0	
2.75	2.5	0	
2.75	2	0	
2.75	1.75	0	
2.75	1.5	0	
2.75	1.25	0	
2.75	1	0	
2.75	0.5	0	
2.75	0	0	
3.25	3	0	
3.25	2.5	0	
3.25	2	0	
3.25	1.75	0	
3.25	1.25	0	
3.25	1	0	
3.25	0.5	0	
3.25	0	0	
3.75	3	0	
3.75	2.5	0	
3.75	2	0	
3.75	1.5	0	
3.75	1	0	
3.75	0.5	0	
3.75	0	0	
4.375	3	0	
4.375	2.5	0	
4.375	2	0	
4.375	1.5	0	
4.375	1	0	
4.375	0.5	0	
4.375	0	0	
5	3	0	
5	2.5	0	
5	2	0	
5	1.5	0	
5	1	0	
5	0.5	0	
5	0	0	

CELLS 30	120
3	0	2	12	
3	2	4	14	
3	0	12	10	
3	2	14	12	
3	10	12	22	
3	12	14	24	
3	10	22	20	
3	12	24	22	
3	20	22	41	
3	22	24	43	
3	24	26	45	
3	26	28	47	
3	28	30	49	
3	22	43	41	
3	24	45	43	
3	26	47	45	
3	28	49	47	
3	41	43	60	
3	43	45	60	
3	45	47	62	
3	47	49	64	
3	41	60	58	
3	45	62	60	
3	47	64	62	
3	58	60	74	
3	60	62	76	
3	62	64	78	
3	58	74	72	
3	60	76	74	
3	62	78	76	

CELL_TYPES	30
5
5
5
5
5
5
5
5
5
5
5
5
5
5
5
5
5
5
5
5
5
5
5
5
5
5
5
5
5
5

POINT_DATA	79
VECTORS u float
-4.25405e-010	1.68664e-009	21.3229	
0.75	-9.66356e-012	0	
1	-2.58147e-013	20.969	
0.75	-1.20236e-011	0	
-3.90845e-010	-1.6262e-009	20.5986	
8.18965e-010	1.81016e-009	0	
0.745685	0.00171128	0	
0.986491	0.00462928	0	
0.732762	0.00574608	0	
7.82833e-010	-1.81218e-009	0	
4.07065e-010	6.51731e-010	9.06478	
0.773337	0.00234357	0	
1.0445	-0.0111439	9.4515	
0.796788	-0.00543743	0	
4.2685e-010	-7.01966e-010	9.89091	
3.52554e-010	5.69039e-010	0	
0.747363	-0.0246846	0	
1.00311	-0.104097	0	
0.786274	-0.109676	0	
4.10195e-010	-5.59003e-010	0	
2.4774e-010	2.6752e-010	4.21805	
0.657386	-0.0394427	0	
0.895365	-0.173338	5.03636	
0.698996	-0.219788	0	
2.37722e-010	-1.82874e-010	1.948	
-2.11501e-012	-1.01828e-010	0	
4.32404e-011	-3.03365e-011	-0.73576	
2.26491e-011	8.9787e-012	0	
-1.91608e-011	-9.6163e-012	0.230147	
-4.16093e-011	1.578e-012	0	
-3.83748e-011	-3.47066e-011	0.393342	
3.5217e-010	2.5347e-010	0	
0.523778	-0.0668627	0	
0.675797	-0.333973	0	
0.390393	-0.349782	0	
0.194765	-0.271997	0	
0.0756338	-0.193331	0	
0.0294815	-0.0919118	0	
0.0221963	-0.0414276	0	
0.00847448	-0.0112993	0	
-7.42144e-013	-5.28629e-011	0	
1.91863e-010	9.15584e-011	1.04305	
0.523876	-0.170079	0	
0.461757	-0.282647	0.820319	
0.323599	-0.268761	0	
0.201839	-0.222871	0.461285	
0.12247	-0.145586	0	
0.0837653	-0.0863905	0.439678	
0.0350204	-0.0265566	0	
6.43713e-012	-4.46138e-011	0.419277	
1.38368e-010	7.50706e-011	0	
0.337502	-0.0805407	0	
0.379375	-0.178498	0	
0.333118	-0.182037	0	
0.222209	-0.123641	0	
0.174156	-0.0857	0	
0.0873523	-0.027879	0	
2.75043e-011	-8.33791e-011	0	
8.69261e-011	2.72853e-011	0.222705	
0.257501	-0.0306572	0	
0.3408	-0.089136	0.461541	
0.312818	-0.0979771	0	
0.236156	-0.065254	0.356438	
0.134755	-0.0215315	0	
3.90711e-011	-5.68935e-011	0.452703	
1.00032e-010	1.75533e-011	0	
0.205651	-0.00854571	0	
0.313709	-0.0343113	0	
0.330114	-0.0513724	0	
0.277236	-0.0404725	0	
0.169393	-0.0158004	0	
9.51561e-011	-4.50334e-011	0	
6.41e-011	-2.48782e-012	1.36071e-013	
0.186262	-0.0089252	0	
0.298721	-0.025849	7.1998e-013	
0.334345	-0.0352534	0	
0.295263	-0.0266541	5.61386e-013	
0.182112	-0.0131225	0	
6.30913e-011	-7.35541e-012	-1.48152e-012	
