# vtk DataFile Version 4.1
vtk output
ASCII
DATASET UNSTRUCTURED_GRID

POINTS	7401	float
0	0	0	
0	1	0	
0	2	0	
0	3	0	
0	4	0	
0	5	0	
0	6	0	
0	7	0	
0	8	0	
0	9	0	
0	10	0	
0	11	0	
0	12	0	
0	13	0	
0	14	0	
0	15	0	
0	16	0	
0	17	0	
0	18	0	
0	19	0	
0	20	0	
0	21	0	
0	22	0	
0	23	0	
0	24	0	
0	25	0	
0	26	0	
0	27	0	
0	28	0	
0	29	0	
0	30	0	
0	31	0	
0	32	0	
0	33	0	
0	34	0	
0	35	0	
0	36	0	
0	37	0	
0	38	0	
0	39	0	
0	40	0	
1	0	0	
1	1	0	
1	2	0	
1	3	0	
1	4	0	
1	5	0	
1	6	0	
1	7	0	
1	8	0	
1	9	0	
1	10	0	
1	11	0	
1	12	0	
1	13	0	
1	14	0	
1	15	0	
1	16	0	
1	17	0	
1	18	0	
1	19	0	
1	20	0	
1	21	0	
1	22	0	
1	23	0	
1	24	0	
1	25	0	
1	26	0	
1	27	0	
1	28	0	
1	29	0	
1	30	0	
1	31	0	
1	32	0	
1	33	0	
1	34	0	
1	35	0	
1	36	0	
1	37	0	
1	38	0	
1	39	0	
1	40	0	
2	0	0	
2	1	0	
2	2	0	
2	3	0	
2	4	0	
2	5	0	
2	6	0	
2	7	0	
2	8	0	
2	9	0	
2	10	0	
2	11	0	
2	12	0	
2	13	0	
2	14	0	
2	15	0	
2	16	0	
2	17	0	
2	18	0	
2	19	0	
2	20	0	
2	21	0	
2	22	0	
2	23	0	
2	24	0	
2	25	0	
2	26	0	
2	27	0	
2	28	0	
2	29	0	
2	30	0	
2	31	0	
2	32	0	
2	33	0	
2	34	0	
2	35	0	
2	36	0	
2	37	0	
2	38	0	
2	39	0	
2	40	0	
3	0	0	
3	1	0	
3	2	0	
3	3	0	
3	4	0	
3	5	0	
3	6	0	
3	7	0	
3	8	0	
3	9	0	
3	10	0	
3	11	0	
3	12	0	
3	13	0	
3	14	0	
3	15	0	
3	16	0	
3	17	0	
3	18	0	
3	19	0	
3	20	0	
3	21	0	
3	22	0	
3	23	0	
3	24	0	
3	25	0	
3	26	0	
3	27	0	
3	28	0	
3	29	0	
3	30	0	
3	31	0	
3	32	0	
3	33	0	
3	34	0	
3	35	0	
3	36	0	
3	37	0	
3	38	0	
3	39	0	
3	40	0	
4	0	0	
4	1	0	
4	2	0	
4	3	0	
4	4	0	
4	5	0	
4	6	0	
4	7	0	
4	8	0	
4	9	0	
4	10	0	
4	11	0	
4	12	0	
4	13	0	
4	14	0	
4	15	0	
4	16	0	
4	17	0	
4	18	0	
4	19	0	
4	20	0	
4	21	0	
4	22	0	
4	23	0	
4	24	0	
4	25	0	
4	26	0	
4	27	0	
4	28	0	
4	29	0	
4	30	0	
4	31	0	
4	32	0	
4	33	0	
4	34	0	
4	35	0	
4	36	0	
4	37	0	
4	38	0	
4	39	0	
4	40	0	
5	0	0	
5	1	0	
5	2	0	
5	3	0	
5	4	0	
5	5	0	
5	6	0	
5	7	0	
5	8	0	
5	9	0	
5	10	0	
5	11	0	
5	12	0	
5	13	0	
5	14	0	
5	15	0	
5	16	0	
5	17	0	
5	18	0	
5	19	0	
5	20	0	
5	21	0	
5	22	0	
5	23	0	
5	24	0	
5	25	0	
5	26	0	
5	27	0	
5	28	0	
5	29	0	
5	30	0	
5	31	0	
5	32	0	
5	33	0	
5	34	0	
5	35	0	
5	36	0	
5	37	0	
5	38	0	
5	39	0	
5	40	0	
6	0	0	
6	1	0	
6	2	0	
6	3	0	
6	4	0	
6	5	0	
6	6	0	
6	7	0	
6	8	0	
6	9	0	
6	10	0	
6	11	0	
6	12	0	
6	13	0	
6	14	0	
6	15	0	
6	16	0	
6	17	0	
6	18	0	
6	19	0	
6	20	0	
6	21	0	
6	22	0	
6	23	0	
6	24	0	
6	25	0	
6	26	0	
6	27	0	
6	28	0	
6	29	0	
6	30	0	
6	31	0	
6	32	0	
6	33	0	
6	34	0	
6	35	0	
6	36	0	
6	37	0	
6	38	0	
6	39	0	
6	40	0	
7	0	0	
7	1	0	
7	2	0	
7	3	0	
7	4	0	
7	5	0	
7	6	0	
7	7	0	
7	8	0	
7	9	0	
7	10	0	
7	11	0	
7	12	0	
7	13	0	
7	14	0	
7	15	0	
7	16	0	
7	17	0	
7	18	0	
7	19	0	
7	20	0	
7	21	0	
7	22	0	
7	23	0	
7	24	0	
7	25	0	
7	26	0	
7	27	0	
7	28	0	
7	29	0	
7	30	0	
7	31	0	
7	32	0	
7	33	0	
7	34	0	
7	35	0	
7	36	0	
7	37	0	
7	38	0	
7	39	0	
7	40	0	
8	0	0	
8	1	0	
8	2	0	
8	3	0	
8	4	0	
8	5	0	
8	6	0	
8	7	0	
8	8	0	
8	9	0	
8	10	0	
8	11	0	
8	12	0	
8	13	0	
8	14	0	
8	15	0	
8	16	0	
8	17	0	
8	18	0	
8	19	0	
8	20	0	
8	21	0	
8	22	0	
8	23	0	
8	24	0	
8	25	0	
8	26	0	
8	27	0	
8	28	0	
8	29	0	
8	30	0	
8	31	0	
8	32	0	
8	33	0	
8	34	0	
8	35	0	
8	36	0	
8	37	0	
8	38	0	
8	39	0	
8	40	0	
9	0	0	
9	1	0	
9	2	0	
9	3	0	
9	4	0	
9	5	0	
9	6	0	
9	7	0	
9	8	0	
9	9	0	
9	10	0	
9	11	0	
9	12	0	
9	13	0	
9	14	0	
9	15	0	
9	16	0	
9	17	0	
9	18	0	
9	19	0	
9	20	0	
9	21	0	
9	22	0	
9	23	0	
9	24	0	
9	25	0	
9	26	0	
9	27	0	
9	28	0	
9	29	0	
9	30	0	
9	31	0	
9	32	0	
9	33	0	
9	34	0	
9	35	0	
9	36	0	
9	37	0	
9	38	0	
9	39	0	
9	40	0	
10	0	0	
10	1	0	
10	2	0	
10	3	0	
10	4	0	
10	5	0	
10	6	0	
10	7	0	
10	8	0	
10	9	0	
10	10	0	
10	11	0	
10	12	0	
10	13	0	
10	14	0	
10	15	0	
10	16	0	
10	17	0	
10	18	0	
10	19	0	
10	20	0	
10	21	0	
10	22	0	
10	23	0	
10	24	0	
10	25	0	
10	26	0	
10	27	0	
10	28	0	
10	29	0	
10	30	0	
10	31	0	
10	32	0	
10	33	0	
10	34	0	
10	35	0	
10	36	0	
10	37	0	
10	38	0	
10	39	0	
10	40	0	
11	0	0	
11	1	0	
11	2	0	
11	3	0	
11	4	0	
11	5	0	
11	6	0	
11	7	0	
11	8	0	
11	9	0	
11	10	0	
11	11	0	
11	12	0	
11	13	0	
11	14	0	
11	15	0	
11	16	0	
11	17	0	
11	18	0	
11	19	0	
11	20	0	
11	21	0	
11	22	0	
11	23	0	
11	24	0	
11	25	0	
11	26	0	
11	27	0	
11	28	0	
11	29	0	
11	30	0	
11	31	0	
11	32	0	
11	33	0	
11	34	0	
11	35	0	
11	36	0	
11	37	0	
11	38	0	
11	39	0	
11	40	0	
12	0	0	
12	1	0	
12	2	0	
12	3	0	
12	4	0	
12	5	0	
12	6	0	
12	7	0	
12	8	0	
12	9	0	
12	10	0	
12	11	0	
12	12	0	
12	13	0	
12	14	0	
12	15	0	
12	16	0	
12	17	0	
12	18	0	
12	19	0	
12	20	0	
12	21	0	
12	22	0	
12	23	0	
12	24	0	
12	25	0	
12	26	0	
12	27	0	
12	28	0	
12	29	0	
12	30	0	
12	31	0	
12	32	0	
12	33	0	
12	34	0	
12	35	0	
12	36	0	
12	37	0	
12	38	0	
12	39	0	
12	40	0	
13	0	0	
13	1	0	
13	2	0	
13	3	0	
13	4	0	
13	5	0	
13	6	0	
13	7	0	
13	8	0	
13	9	0	
13	10	0	
13	11	0	
13	12	0	
13	13	0	
13	14	0	
13	15	0	
13	16	0	
13	17	0	
13	18	0	
13	19	0	
13	20	0	
13	21	0	
13	22	0	
13	23	0	
13	24	0	
13	25	0	
13	26	0	
13	27	0	
13	28	0	
13	29	0	
13	30	0	
13	31	0	
13	32	0	
13	33	0	
13	34	0	
13	35	0	
13	36	0	
13	37	0	
13	38	0	
13	39	0	
13	40	0	
14	0	0	
14	1	0	
14	2	0	
14	3	0	
14	4	0	
14	5	0	
14	6	0	
14	7	0	
14	8	0	
14	9	0	
14	10	0	
14	11	0	
14	12	0	
14	13	0	
14	14	0	
14	15	0	
14	16	0	
14	17	0	
14	18	0	
14	19	0	
14	20	0	
14	21	0	
14	22	0	
14	23	0	
14	24	0	
14	25	0	
14	26	0	
14	27	0	
14	28	0	
14	29	0	
14	30	0	
14	31	0	
14	32	0	
14	33	0	
14	34	0	
14	35	0	
14	36	0	
14	37	0	
14	38	0	
14	39	0	
14	40	0	
15	0	0	
15	1	0	
15	2	0	
15	3	0	
15	4	0	
15	5	0	
15	6	0	
15	7	0	
15	8	0	
15	9	0	
15	10	0	
15	11	0	
15	12	0	
15	13	0	
15	14	0	
15	15	0	
15	16	0	
15	17	0	
15	18	0	
15	19	0	
15	20	0	
15	21	0	
15	22	0	
15	23	0	
15	24	0	
15	25	0	
15	26	0	
15	27	0	
15	28	0	
15	29	0	
15	30	0	
15	31	0	
15	32	0	
15	33	0	
15	34	0	
15	35	0	
15	36	0	
15	37	0	
15	38	0	
15	39	0	
15	40	0	
16	0	0	
16	1	0	
16	2	0	
16	3	0	
16	4	0	
16	5	0	
16	6	0	
16	7	0	
16	8	0	
16	9	0	
16	10	0	
16	11	0	
16	12	0	
16	13	0	
16	14	0	
16	15	0	
16	16	0	
16	17	0	
16	18	0	
16	19	0	
16	20	0	
16	21	0	
16	22	0	
16	23	0	
16	24	0	
16	25	0	
16	26	0	
16	27	0	
16	28	0	
16	29	0	
16	30	0	
16	31	0	
16	32	0	
16	33	0	
16	34	0	
16	35	0	
16	36	0	
16	37	0	
16	38	0	
16	39	0	
16	40	0	
17	0	0	
17	1	0	
17	2	0	
17	3	0	
17	4	0	
17	5	0	
17	6	0	
17	7	0	
17	8	0	
17	9	0	
17	10	0	
17	11	0	
17	12	0	
17	13	0	
17	14	0	
17	15	0	
17	16	0	
17	17	0	
17	18	0	
17	19	0	
17	20	0	
17	21	0	
17	22	0	
17	23	0	
17	24	0	
17	25	0	
17	26	0	
17	27	0	
17	28	0	
17	29	0	
17	30	0	
17	31	0	
17	32	0	
17	33	0	
17	34	0	
17	35	0	
17	36	0	
17	37	0	
17	38	0	
17	39	0	
17	40	0	
18	0	0	
18	1	0	
18	2	0	
18	3	0	
18	4	0	
18	5	0	
18	6	0	
18	7	0	
18	8	0	
18	9	0	
18	10	0	
18	11	0	
18	12	0	
18	13	0	
18	14	0	
18	15	0	
18	16	0	
18	17	0	
18	18	0	
18	19	0	
18	20	0	
18	21	0	
18	22	0	
18	23	0	
18	24	0	
18	25	0	
18	26	0	
18	27	0	
18	28	0	
18	29	0	
18	30	0	
18	31	0	
18	32	0	
18	33	0	
18	34	0	
18	35	0	
18	36	0	
18	37	0	
18	38	0	
18	39	0	
18	40	0	
19	0	0	
19	1	0	
19	2	0	
19	3	0	
19	4	0	
19	5	0	
19	6	0	
19	7	0	
19	8	0	
19	9	0	
19	10	0	
19	11	0	
19	12	0	
19	13	0	
19	14	0	
19	15	0	
19	16	0	
19	17	0	
19	18	0	
19	19	0	
19	20	0	
19	21	0	
19	22	0	
19	23	0	
19	24	0	
19	25	0	
19	26	0	
19	27	0	
19	28	0	
19	29	0	
19	30	0	
19	31	0	
19	32	0	
19	33	0	
19	34	0	
19	35	0	
19	36	0	
19	37	0	
19	38	0	
19	39	0	
19	40	0	
20	0	0	
20	1	0	
20	2	0	
20	3	0	
20	4	0	
20	5	0	
20	6	0	
20	7	0	
20	8	0	
20	9	0	
20	10	0	
20	11	0	
20	12	0	
20	13	0	
20	14	0	
20	15	0	
20	16	0	
20	17	0	
20	18	0	
20	19	0	
20	20	0	
20	21	0	
20	22	0	
20	23	0	
20	24	0	
20	25	0	
20	26	0	
20	27	0	
20	28	0	
20	29	0	
20	30	0	
20	31	0	
20	32	0	
20	33	0	
20	34	0	
20	35	0	
20	36	0	
20	37	0	
20	38	0	
20	39	0	
20	40	0	
21	0	0	
21	1	0	
21	2	0	
21	3	0	
21	4	0	
21	5	0	
21	6	0	
21	7	0	
21	8	0	
21	9	0	
21	10	0	
21	11	0	
21	12	0	
21	13	0	
21	14	0	
21	15	0	
21	16	0	
21	17	0	
21	18	0	
21	19	0	
21	20	0	
21	21	0	
21	22	0	
21	23	0	
21	24	0	
21	25	0	
21	26	0	
21	27	0	
21	28	0	
21	29	0	
21	30	0	
21	31	0	
21	32	0	
21	33	0	
21	34	0	
21	35	0	
21	36	0	
21	37	0	
21	38	0	
21	39	0	
21	40	0	
22	0	0	
22	1	0	
22	2	0	
22	3	0	
22	4	0	
22	5	0	
22	6	0	
22	7	0	
22	8	0	
22	9	0	
22	10	0	
22	11	0	
22	12	0	
22	13	0	
22	14	0	
22	15	0	
22	16	0	
22	17	0	
22	18	0	
22	19	0	
22	20	0	
22	21	0	
22	22	0	
22	23	0	
22	24	0	
22	25	0	
22	26	0	
22	27	0	
22	28	0	
22	29	0	
22	30	0	
22	31	0	
22	32	0	
22	33	0	
22	34	0	
22	35	0	
22	36	0	
22	37	0	
22	38	0	
22	39	0	
22	40	0	
23	0	0	
23	1	0	
23	2	0	
23	3	0	
23	4	0	
23	5	0	
23	6	0	
23	7	0	
23	8	0	
23	9	0	
23	10	0	
23	11	0	
23	12	0	
23	13	0	
23	14	0	
23	15	0	
23	16	0	
23	17	0	
23	18	0	
23	19	0	
23	20	0	
23	21	0	
23	22	0	
23	23	0	
23	24	0	
23	25	0	
23	26	0	
23	27	0	
23	28	0	
23	29	0	
23	30	0	
23	31	0	
23	32	0	
23	33	0	
23	34	0	
23	35	0	
23	36	0	
23	37	0	
23	38	0	
23	39	0	
23	40	0	
24	0	0	
24	1	0	
24	2	0	
24	3	0	
24	4	0	
24	5	0	
24	6	0	
24	7	0	
24	8	0	
24	9	0	
24	10	0	
24	11	0	
24	12	0	
24	13	0	
24	14	0	
24	15	0	
24	16	0	
24	17	0	
24	18	0	
24	19	0	
24	20	0	
24	21	0	
24	22	0	
24	23	0	
24	24	0	
24	25	0	
24	26	0	
24	27	0	
24	28	0	
24	29	0	
24	30	0	
24	31	0	
24	32	0	
24	33	0	
24	34	0	
24	35	0	
24	36	0	
24	37	0	
24	38	0	
24	39	0	
24	40	0	
25	0	0	
25	1	0	
25	2	0	
25	3	0	
25	4	0	
25	5	0	
25	6	0	
25	7	0	
25	8	0	
25	9	0	
25	10	0	
25	11	0	
25	12	0	
25	13	0	
25	14	0	
25	15	0	
25	16	0	
25	17	0	
25	18	0	
25	19	0	
25	20	0	
25	21	0	
25	22	0	
25	23	0	
25	24	0	
25	25	0	
25	26	0	
25	27	0	
25	28	0	
25	29	0	
25	30	0	
25	31	0	
25	32	0	
25	33	0	
25	34	0	
25	35	0	
25	36	0	
25	37	0	
25	38	0	
25	39	0	
25	40	0	
26	0	0	
26	1	0	
26	2	0	
26	3	0	
26	4	0	
26	5	0	
26	6	0	
26	7	0	
26	8	0	
26	9	0	
26	10	0	
26	11	0	
26	12	0	
26	13	0	
26	14	0	
26	15	0	
26	16	0	
26	17	0	
26	18	0	
26	19	0	
26	20	0	
26	21	0	
26	22	0	
26	23	0	
26	24	0	
26	25	0	
26	26	0	
26	27	0	
26	28	0	
26	29	0	
26	30	0	
26	31	0	
26	32	0	
26	33	0	
26	34	0	
26	35	0	
26	36	0	
26	37	0	
26	38	0	
26	39	0	
26	40	0	
27	0	0	
27	1	0	
27	2	0	
27	3	0	
27	4	0	
27	5	0	
27	6	0	
27	7	0	
27	8	0	
27	9	0	
27	10	0	
27	11	0	
27	12	0	
27	13	0	
27	14	0	
27	15	0	
27	16	0	
27	17	0	
27	18	0	
27	19	0	
27	20	0	
27	21	0	
27	22	0	
27	23	0	
27	24	0	
27	25	0	
27	26	0	
27	27	0	
27	28	0	
27	29	0	
27	30	0	
27	31	0	
27	32	0	
27	33	0	
27	34	0	
27	35	0	
27	36	0	
27	37	0	
27	38	0	
27	39	0	
27	40	0	
28	0	0	
28	1	0	
28	2	0	
28	3	0	
28	4	0	
28	5	0	
28	6	0	
28	7	0	
28	8	0	
28	9	0	
28	10	0	
28	11	0	
28	12	0	
28	13	0	
28	14	0	
28	15	0	
28	16	0	
28	17	0	
28	18	0	
28	19	0	
28	20	0	
28	21	0	
28	22	0	
28	23	0	
28	24	0	
28	25	0	
28	26	0	
28	27	0	
28	28	0	
28	29	0	
28	30	0	
[...]
POINT_DATA	7401
VECTORS d float
-2.17805e-016	-1.16331e-016	0	
-5.81587e-017	-3.15352e-017	0	
3.71413e-017	-2.20165e-017	0	
-3.27644e-017	-1.44933e-017	0	
-1.91857e-017	-3.00466e-017	0	
-1.33281e-017	-3.2931e-017	0	
-1.06577e-017	-3.37426e-017	0	
-8.49395e-018	-3.46182e-017	0	
-7.26378e-018	-3.4801e-017	0	
-6.21954e-018	-3.4948e-017	0	
-5.30245e-018	-3.51109e-017	0	
-4.50581e-018	-3.52646e-017	0	
-3.81044e-018	-3.54081e-017	0	
-3.20351e-018	-3.55323e-017	0	
-2.66145e-018	-3.56352e-017	0	
-2.16325e-018	-3.57195e-017	0	
-1.69732e-018	-3.57866e-017	0	
-1.25354e-018	-3.58382e-017	0	
-8.28339e-019	-3.58754e-017	0	
-4.1225e-019	-3.58976e-017	0	
-8.27999e-025	-3.59051e-017	0	
4.12252e-019	-3.58976e-017	0	
8.2835e-019	-3.58754e-017	0	
1.25356e-018	-3.58383e-017	0	
1.69735e-018	-3.57866e-017	0	
2.1633e-018	-3.57195e-017	0	
2.66149e-018	-3.56352e-017	0	
3.20354e-018	-3.55323e-017	0	
3.81046e-018	-3.54081e-017	0	
4.50582e-018	-3.52646e-017	0	
5.30245e-018	-3.51109e-017	0	
6.21955e-018	-3.4948e-017	0	
7.26382e-018	-3.4801e-017	0	
8.49401e-018	-3.46182e-017	0	
1.06578e-017	-3.37426e-017	0	
1.33281e-017	-3.2931e-017	0	
1.91857e-017	-3.00466e-017	0	
3.27645e-017	-1.44933e-017	0	
-3.71413e-017	-2.20165e-017	0	
5.81587e-017	-3.15352e-017	0	
2.17805e-016	-1.16331e-016	0	
-7.12648e-006	-6.76978e-006	0	
-3.11846e-006	-5.06281e-006	0	
5.58939e-007	-4.19138e-006	0	
-9.10447e-007	-5.23848e-006	0	
-7.70998e-007	-5.25284e-006	0	
-5.4802e-007	-5.39715e-006	0	
-4.36159e-007	-5.45605e-006	0	
-3.70894e-007	-5.48332e-006	0	
-3.17061e-007	-5.49802e-006	0	
-2.70842e-007	-5.50936e-006	0	
-2.28758e-007	-5.52517e-006	0	
-1.92901e-007	-5.54305e-006	0	
-1.62666e-007	-5.56024e-006	0	
-1.36612e-007	-5.5755e-006	0	
-1.13409e-007	-5.58853e-006	0	
-9.2141e-008	-5.59944e-006	0	
-7.22479e-008	-5.60838e-006	0	
-5.33614e-008	-5.61536e-006	0	
-3.51933e-008	-5.62037e-006	0	
-1.74849e-008	-5.62339e-006	0	
2.77731e-014	-5.6244e-006	0	
1.7485e-008	-5.6234e-006	0	
3.51934e-008	-5.62038e-006	0	
5.33616e-008	-5.61536e-006	0	
7.22483e-008	-5.60838e-006	0	
9.21415e-008	-5.59944e-006	0	
1.13409e-007	-5.58852e-006	0	
1.36613e-007	-5.5755e-006	0	
1.62666e-007	-5.56024e-006	0	
1.92901e-007	-5.54305e-006	0	
2.28758e-007	-5.52517e-006	0	
2.70842e-007	-5.50936e-006	0	
3.17062e-007	-5.49802e-006	0	
3.70894e-007	-5.48332e-006	0	
4.36161e-007	-5.45605e-006	0	
5.48021e-007	-5.39715e-006	0	
7.70999e-007	-5.25284e-006	0	
9.10448e-007	-5.23848e-006	0	
-5.58939e-007	-4.19138e-006	0	
3.11846e-006	-5.06281e-006	0	
7.12648e-006	-6.76978e-006	0	
-1.11261e-005	-1.31939e-005	0	
-6.18644e-006	-1.20621e-005	0	
-2.98762e-006	-1.20809e-005	0	
-2.63792e-006	-1.30087e-005	0	
-1.61381e-006	-1.13382e-005	0	
-1.13799e-006	-1.11873e-005	0	
-8.62198e-007	-1.1189e-005	0	
-7.46858e-007	-1.1125e-005	0	
-6.37317e-007	-1.11051e-005	0	
-5.33711e-007	-1.11123e-005	0	
-4.4537e-007	-1.11344e-005	0	
-3.73194e-007	-1.11612e-005	0	
-3.14033e-007	-1.11869e-005	0	
-2.63464e-007	-1.12101e-005	0	
-2.18425e-007	-1.12308e-005	0	
-1.77174e-007	-1.12488e-005	0	
-1.38695e-007	-1.12639e-005	0	
-1.02303e-007	-1.1276e-005	0	
-6.74099e-008	-1.12848e-005	0	
-3.34734e-008	-1.12901e-005	0	
5.29313e-014	-1.12919e-005	0	
3.34735e-008	-1.12901e-005	0	
6.741e-008	-1.12848e-005	0	
1.02304e-007	-1.1276e-005	0	
1.38696e-007	-1.12639e-005	0	
1.77174e-007	-1.12488e-005	0	
2.18425e-007	-1.12308e-005	0	
2.63464e-007	-1.12101e-005	0	
3.14034e-007	-1.11869e-005	0	
3.73194e-007	-1.11612e-005	0	
4.4537e-007	-1.11344e-005	0	
5.33711e-007	-1.11123e-005	0	
6.37318e-007	-1.11051e-005	0	
7.46859e-007	-1.1125e-005	0	
8.622e-007	-1.1189e-005	0	
1.13799e-006	-1.11873e-005	0	
1.61381e-006	-1.13382e-005	0	
2.63792e-006	-1.30087e-005	0	
2.98762e-006	-1.20809e-005	0	
6.18644e-006	-1.20621e-005	0	
1.11261e-005	-1.31939e-005	0	
-1.39162e-005	-1.90485e-005	0	
-8.88074e-006	-1.79237e-005	0	
-5.51561e-006	-1.7281e-005	0	
-3.64554e-006	-1.77098e-005	0	
-2.5721e-006	-1.85326e-005	0	
-1.83824e-006	-1.72821e-005	0	
-1.40268e-006	-1.69784e-005	0	
-1.17584e-006	-1.68648e-005	0	
-9.70762e-007	-1.67919e-005	0	
-7.89547e-007	-1.68014e-005	0	
-6.5225e-007	-1.68253e-005	0	
-5.4573e-007	-1.68523e-005	0	
-4.59121e-007	-1.68782e-005	0	
-3.84656e-007	-1.69028e-005	0	
-3.18019e-007	-1.69265e-005	0	
-2.57147e-007	-1.69484e-005	0	
-2.00774e-007	-1.69676e-005	0	
-1.47823e-007	-1.69832e-005	0	
-9.72953e-008	-1.69946e-005	0	
-4.82842e-008	-1.70015e-005	0	
3.22258e-014	-1.70039e-005	0	
4.82843e-008	-1.70015e-005	0	
9.72953e-008	-1.69946e-005	0	
1.47823e-007	-1.69832e-005	0	
2.00774e-007	-1.69676e-005	0	
2.57147e-007	-1.69484e-005	0	
3.1802e-007	-1.69265e-005	0	
3.84657e-007	-1.69028e-005	0	
4.59121e-007	-1.68782e-005	0	
5.4573e-007	-1.68523e-005	0	
6.5225e-007	-1.68253e-005	0	
7.89547e-007	-1.68014e-005	0	
9.70763e-007	-1.67919e-005	0	
1.17585e-006	-1.68648e-005	0	
1.40268e-006	-1.69784e-005	0	
1.83824e-006	-1.72821e-005	0	
2.5721e-006	-1.85326e-005	0	
3.64554e-006	-1.77098e-005	0	
5.51561e-006	-1.7281e-005	0	
8.88074e-006	-1.79237e-005	0	
1.39162e-005	-1.90485e-005	0	
-1.66419e-005	-2.42476e-005	0	
-1.14086e-005	-2.31339e-005	0	
-7.1083e-006	-2.2417e-005	0	
-5.08115e-006	-2.24974e-005	0	
-3.2008e-006	-2.27831e-005	0	
-1.8601e-006	-2.33951e-005	0	
-2.05337e-006	-2.26958e-005	0	
-1.62239e-006	-2.25485e-005	0	
-1.28078e-006	-2.25576e-005	0	
-1.03134e-006	-2.25726e-005	0	
-8.50212e-007	-2.25953e-005	0	
-7.15287e-007	-2.2611e-005	0	
-6.02413e-007	-2.26285e-005	0	
-5.03048e-007	-2.26497e-005	0	
-4.13846e-007	-2.26736e-005	0	
-3.33116e-007	-2.26975e-005	0	
-2.59248e-007	-2.27192e-005	0	
-1.90496e-007	-2.27371e-005	0	
-1.25242e-007	-2.27504e-005	0	
-6.2119e-008	-2.27585e-005	0	
-1.24465e-014	-2.27612e-005	0	
6.2119e-008	-2.27585e-005	0	
1.25242e-007	-2.27504e-005	0	
1.90496e-007	-2.27371e-005	0	
2.59248e-007	-2.27192e-005	0	
3.33116e-007	-2.26975e-005	0	
4.13846e-007	-2.26736e-005	0	
5.03048e-007	-2.26497e-005	0	
6.02413e-007	-2.26285e-005	0	
7.15287e-007	-2.2611e-005	0	
8.50212e-007	-2.25953e-005	0	
1.03134e-006	-2.25726e-005	0	
1.28078e-006	-2.25576e-005	0	
1.62239e-006	-2.25485e-005	0	
2.05337e-006	-2.26958e-005	0	
1.8601e-006	-2.33951e-005	0	
3.2008e-006	-2.27831e-005	0	
5.08115e-006	-2.24974e-005	0	
7.1083e-006	-2.2417e-005	0	
1.14086e-005	-2.31339e-005	0	
1.66419e-005	-2.42476e-005	0	
-1.95328e-005	-2.96039e-005	0	
-1.39299e-005	-2.84138e-005	0	
-8.35054e-006	-2.72958e-005	0	
-6.5461e-006	-2.73808e-005	0	
-4.75409e-006	-2.79212e-005	0	
-1.92846e-006	-2.77881e-005	0	
-2.47372e-006	-2.81242e-005	0	
-1.98915e-006	-2.83498e-005	0	
-1.51733e-006	-2.8444e-005	0	
-1.24876e-006	-2.84399e-005	0	
-1.05113e-006	-2.84307e-005	0	
-8.88793e-007	-2.84241e-005	0	
-7.47233e-007	-2.84278e-005	0	
-6.19344e-007	-2.84449e-005	0	
-5.05853e-007	-2.84691e-005	0	
-4.0514e-007	-2.84946e-005	0	
-3.14363e-007	-2.8518e-005	0	
-2.3061e-007	-2.85375e-005	0	
-1.51468e-007	-2.8552e-005	0	
-7.50858e-008	-2.85609e-005	0	
-3.47223e-014	-2.8564e-005	0	
7.50858e-008	-2.85609e-005	0	
1.51468e-007	-2.8552e-005	0	
2.3061e-007	-2.85375e-005	0	
3.14363e-007	-2.8518e-005	0	
4.0514e-007	-2.84946e-005	0	
5.05853e-007	-2.84691e-005	0	
6.19344e-007	-2.84449e-005	0	
7.47233e-007	-2.84278e-005	0	
8.88793e-007	-2.84241e-005	0	
1.05113e-006	-2.84307e-005	0	
1.24876e-006	-2.84399e-005	0	
1.51733e-006	-2.8444e-005	0	
1.98915e-006	-2.83498e-005	0	
2.47372e-006	-2.81242e-005	0	
1.92846e-006	-2.77881e-005	0	
4.75409e-006	-2.79212e-005	0	
6.5461e-006	-2.73808e-005	0	
8.35054e-006	-2.72958e-005	0	
1.39299e-005	-2.84138e-005	0	
1.95328e-005	-2.96039e-005	0	
-2.25009e-005	-3.54945e-005	0	
-1.63671e-005	-3.43506e-005	0	
-1.02117e-005	-3.34278e-005	0	
-7.56471e-006	-3.22173e-005	0	
-6.58127e-006	-3.33398e-005	0	
-3.82973e-006	-3.46271e-005	0	
-2.69325e-006	-3.57329e-005	0	
-2.31094e-006	-3.45391e-005	0	
-1.799e-006	-3.44057e-005	0	
-1.46357e-006	-3.43973e-005	0	
-1.26663e-006	-3.43065e-005	0	
-1.07405e-006	-3.42668e-005	0	
-8.91287e-007	-3.42641e-005	0	
-7.30309e-007	-3.42831e-005	0	
-5.91985e-007	-3.43101e-005	0	
-4.72417e-007	-3.43375e-005	0	
-3.65934e-007	-3.43623e-005	0	
-2.68124e-007	-3.4383e-005	0	
-1.75923e-007	-3.43988e-005	0	
-8.71399e-008	-3.44086e-005	0	
-2.48556e-014	-3.4412e-005	0	
8.714e-008	-3.44086e-005	0	
1.75923e-007	-3.43988e-005	0	
2.68124e-007	-3.4383e-005	0	
3.65935e-007	-3.43623e-005	0	
4.72418e-007	-3.43375e-005	0	
5.91985e-007	-3.43101e-005	0	
7.30309e-007	-3.42831e-005	0	
8.91287e-007	-3.42641e-005	0	
1.07405e-006	-3.42668e-005	0	
1.26663e-006	-3.43065e-005	0	
1.46357e-006	-3.43973e-005	0	
1.799e-006	-3.44057e-005	0	
2.31094e-006	-3.45391e-005	0	
2.69325e-006	-3.57329e-005	0	
3.82973e-006	-3.46271e-005	0	
6.58127e-006	-3.33398e-005	0	
7.56471e-006	-3.22173e-005	0	
1.02117e-005	-3.34278e-005	0	
1.63671e-005	-3.43506e-005	0	
2.25009e-005	-3.54945e-005	0	
-2.54159e-005	-4.19728e-005	0	
-1.87637e-005	-4.08447e-005	0	
-1.21271e-005	-3.99253e-005	0	
-9.34476e-006	-3.99567e-005	0	
-8.5587e-006	-4.0277e-005	0	
-5.62005e-006	-4.01582e-005	0	
-3.66718e-006	-4.06992e-005	0	
-2.49276e-006	-4.15328e-005	0	
-2.11483e-006	-4.04629e-005	0	
-1.76083e-006	-4.02593e-005	0	
-1.51561e-006	-4.01717e-005	0	
-1.26052e-006	-4.0114e-005	0	
-1.0216e-006	-4.01327e-005	0	
-8.28497e-007	-4.01631e-005	0	
-6.69642e-007	-4.01947e-005	0	
-5.34149e-007	-4.02236e-005	0	
-4.13538e-007	-4.02495e-005	0	
-3.02548e-007	-4.0272e-005	0	
-1.98124e-007	-4.02896e-005	0	
-9.79895e-008	-4.0301e-005	0	
-1.71719e-014	-4.03049e-005	0	
9.79898e-008	-4.0301e-005	0	
1.98125e-007	-4.02896e-005	0	
3.02549e-007	-4.0272e-005	0	
4.13539e-007	-4.02495e-005	0	
5.3415e-007	-4.02236e-005	0	
6.69643e-007	-4.01947e-005	0	
8.28497e-007	-4.01631e-005	0	
1.0216e-006	-4.01327e-005	0	
1.26052e-006	-4.0114e-005	0	
1.51561e-006	-4.01717e-005	0	
1.76083e-006	-4.02593e-005	0	
2.11483e-006	-4.04629e-005	0	
2.49276e-006	-4.15328e-005	0	
3.66718e-006	-4.06992e-005	0	
5.62005e-006	-4.01582e-005	0	
8.5587e-006	-4.0277e-005	0	
9.34476e-006	-3.99567e-005	0	
1.21271e-005	-3.99253e-005	0	
1.87637e-005	-4.08447e-005	0	
2.54159e-005	-4.19728e-005	0	
-2.82643e-005	-4.89316e-005	0	
-2.11533e-005	-4.78161e-005	0	
-1.406e-005	-4.6889e-005	0	
-1.10182e-005	-4.61362e-005	0	
-8.67464e-006	-4.48299e-005	0	
-7.16387e-006	-4.54057e-005	0	
-5.14377e-006	-4.5639e-005	0	
-3.09296e-006	-4.58591e-005	0	
-1.64432e-006	-4.64811e-005	0	
-2.1326e-006	-4.59613e-005	0	
-1.74677e-006	-4.59179e-005	0	
-1.39895e-006	-4.5988e-005	0	
-1.12224e-006	-4.60408e-005	0	
-9.07949e-007	-4.60879e-005	0	
-7.3823e-007	-4.61198e-005	0	
-5.90372e-007	-4.61481e-005	0	
-4.56292e-007	-4.6176e-005	0	
-3.32531e-007	-4.62021e-005	0	
-2.16896e-007	-4.62235e-005	0	
-1.0698e-007	-4.62375e-005	0	
-3.93728e-014	-4.62423e-005	0	
1.0698e-007	-4.62375e-005	0	
2.16897e-007	-4.62235e-005	0	
3.32532e-007	-4.62021e-005	0	
4.56294e-007	-4.6176e-005	0	
5.90372e-007	-4.61481e-005	0	
7.3823e-007	-4.61198e-005	0	
9.07949e-007	-4.60879e-005	0	
1.12224e-006	-4.60408e-005	0	
1.39895e-006	-4.5988e-005	0	
1.74677e-006	-4.59179e-005	0	
2.1326e-006	-4.59613e-005	0	
1.64432e-006	-4.64811e-005	0	
3.09296e-006	-4.58591e-005	0	
5.14377e-006	-4.5639e-005	0	
7.16387e-006	-4.54057e-005	0	
8.67464e-006	-4.48299e-005	0	
1.10182e-005	-4.61362e-005	0	
1.406e-005	-4.6889e-005	0	
2.11533e-005	-4.78161e-005	0	
2.82643e-005	-4.89316e-005	0	
-3.10598e-005	-5.63236e-005	0	
-2.35333e-005	-5.52214e-005	0	
-1.60242e-005	-5.42878e-005	0	
-1.30514e-005	-5.32512e-005	0	
-1.03064e-005	-5.19768e-005	0	
-7.81845e-006	-4.97643e-005	0	
-6.62544e-006	-5.05907e-005	0	
-4.64798e-006	-5.11542e-005	0	
-1.70022e-006	-5.10487e-005	0	
-2.29387e-006	-5.14373e-005	0	
-1.88199e-006	-5.17745e-005	0	
-1.44154e-006	-5.19599e-005	0	
-1.18245e-006	-5.20173e-005	0	
-9.78388e-007	-5.20516e-005	0	
-8.01548e-007	-5.20765e-005	0	
-6.40961e-007	-5.21036e-005	0	
-4.91601e-007	-5.21374e-005	0	
-3.55213e-007	-5.21716e-005	0	
-2.30191e-007	-5.21998e-005	0	
-1.13109e-007	-5.22181e-005	0	
-6.69976e-014	-5.22243e-005	0	
1.13109e-007	-5.22181e-005	0	
2.30192e-007	-5.21998e-005	0	
3.55214e-007	-5.21716e-005	0	
4.91602e-007	-5.21374e-005	0	
6.40962e-007	-5.21036e-005	0	
8.01548e-007	-5.20765e-005	0	
9.78388e-007	-5.20516e-005	0	
1.18245e-006	-5.20173e-005	0	
1.44154e-006	-5.19599e-005	0	
1.88199e-006	-5.17745e-005	0	
2.29388e-006	-5.14373e-005	0	
1.70022e-006	-5.10487e-005	0	
4.64798e-006	-5.11542e-005	0	
6.62544e-006	-5.05907e-005	0	
7.81845e-006	-4.97643e-005	0	
1.03064e-005	-5.19768e-005	0	
1.30514e-005	-5.32512e-005	0	
1.60242e-005	-5.42878e-005	0	
2.35333e-005	-5.52214e-005	0	
3.10598e-005	-5.63236e-005	0	
-3.38029e-005	-6.41104e-005	0	
-2.59035e-005	-6.30213e-005	0	
-1.80215e-005	-6.20818e-005	0	
-1.50786e-005	-6.08084e-005	0	
-1.2322e-005	-5.95194e-005	0	
-9.69077e-006	-5.80669e-005	0	
-7.63335e-006	-5.56306e-005	0	
-6.47671e-006	-5.67365e-005	0	
-3.57367e-006	-5.80266e-005	0	
-2.26192e-006	-5.91328e-005	0	
-1.9784e-006	-5.80329e-005	0	
-1.5289e-006	-5.79986e-005	0	
-1.22895e-006	-5.80684e-005	0	
-1.05299e-006	-5.80367e-005	0	
-8.66284e-007	-5.80449e-005	0	
-6.81031e-007	-5.80815e-005	0	
-5.13329e-007	-5.81313e-005	0	
-3.65911e-007	-5.818e-005	0	
-2.35258e-007	-5.82186e-005	0	
-1.15153e-007	-5.8243e-005	0	
-3.91751e-014	-5.82512e-005	0	
1.15153e-007	-5.8243e-005	0	
2.35259e-007	-5.82186e-005	0	
3.65912e-007	-5.818e-005	0	
5.13329e-007	-5.81313e-005	0	
6.81031e-007	-5.80815e-005	0	
8.66284e-007	-5.80449e-005	0	
1.05299e-006	-5.80367e-005	0	
1.22895e-006	-5.80684e-005	0	
1.5289e-006	-5.79986e-005	0	
1.9784e-006	-5.80329e-005	0	
2.26192e-006	-5.91328e-005	0	
3.57367e-006	-5.80266e-005	0	
6.47671e-006	-5.67365e-005	0	
7.63335e-006	-5.56306e-005	0	
9.69077e-006	-5.80669e-005	0	
1.2322e-005	-5.95194e-005	0	
1.50786e-005	-6.08084e-005	0	
1.80215e-005	-6.20818e-005	0	
2.59035e-005	-6.30213e-005	0	
3.38029e-005	-6.41104e-005	0	
-3.64933e-005	-7.22504e-005	0	
-2.82647e-005	-7.11745e-005	0	
-2.00535e-005	-7.02285e-005	0	
-1.71027e-005	-6.88278e-005	0	
-1.43144e-005	-6.73166e-005	0	
-1.15814e-005	-6.58374e-005	0	
-9.11596e-006	-6.45631e-005	0	
-8.4519e-006	-6.38345e-005	0	
-5.35172e-006	-6.37169e-005	0	
-3.23127e-006	-6.42654e-005	0	
-1.90155e-006	-6.51042e-005	0	
-1.64655e-006	-6.4129e-005	0	
-1.35781e-006	-6.40128e-005	0	
-1.15375e-006	-6.39966e-005	0	
-9.21243e-007	-6.40038e-005	0	
-6.95286e-007	-6.40805e-005	0	
-5.11184e-007	-6.41595e-005	0	
-3.59281e-007	-6.42284e-005	0	
-2.29241e-007	-6.42805e-005	0	
-1.11823e-007	-6.43129e-005	0	
7.87755e-014	-6.43239e-005	0	
1.11823e-007	-6.43129e-005	0	
2.29241e-007	-6.42805e-005	0	
3.59281e-007	-6.42284e-005	0	
5.11184e-007	-6.41595e-005	0	
6.95286e-007	-6.40805e-005	0	
9.21243e-007	-6.40038e-005	0	
1.15375e-006	-6.39966e-005	0	
1.35781e-006	-6.40128e-005	0	
1.64655e-006	-6.4129e-005	0	
1.90155e-006	-6.51042e-005	0	
3.23127e-006	-6.42654e-005	0	
5.35172e-006	-6.37169e-005	0	
8.4519e-006	-6.38344e-005	0	
9.11596e-006	-6.45631e-005	0	
1.15814e-005	-6.58374e-005	0	
1.43144e-005	-6.73166e-005	0	
1.71027e-005	-6.88278e-005	0	
2.00535e-005	-7.02285e-005	0	
2.82647e-005	-7.11745e-005	0	
3.64933e-005	-7.22504e-005	0	
-3.91298e-005	-8.07004e-005	0	
-3.06175e-005	-7.96378e-005	0	
-2.21226e-005	-7.86846e-005	0	
-1.91822e-005	-7.71104e-005	0	
-1.63732e-005	-7.53993e-005	0	
-1.3646e-005	-7.35986e-005	0	
-1.09928e-005	-7.15388e-005	0	
-8.58987e-006	-6.86052e-005	0	
-6.89522e-006	-6.91384e-005	0	
-4.70612e-006	-6.93639e-005	0	
-2.50025e-006	-6.95843e-005	0	
-9.36899e-007	-7.02187e-005	0	
-1.56483e-006	-6.97797e-005	0	
-1.22824e-006	-6.98247e-005	0	
-9.15422e-007	-6.9979e-005	0	
-6.65466e-007	-7.011e-005	0	
-4.75822e-007	-7.02274e-005	0	
-3.3111e-007	-7.03172e-005	0	
-2.09475e-007	-7.03853e-005	0	
-1.01424e-007	-7.04291e-005	0	
2.54035e-013	-7.04443e-005	0	
1.01424e-007	-7.04291e-005	0	
2.09476e-007	-7.03853e-005	0	
3.3111e-007	-7.03172e-005	0	
4.75822e-007	-7.02274e-005	0	
6.65466e-007	-7.011e-005	0	
9.15423e-007	-6.9979e-005	0	
1.22824e-006	-6.98247e-005	0	
1.56483e-006	-6.97797e-005	0	
9.369e-007	-7.02187e-005	0	
2.50025e-006	-6.95843e-005	0	
4.70612e-006	-6.93639e-005	0	
6.89522e-006	-6.91384e-005	0	
8.58987e-006	-6.86052e-005	0	
1.09928e-005	-7.15388e-005	0	
1.3646e-005	-7.35986e-005	0	
1.63732e-005	-7.53993e-005	0	
1.91822e-005	-7.71104e-005	0	
2.21226e-005	-7.86846e-005	0	
3.06175e-005	-7.96378e-005	0	
3.91298e-005	-8.07004e-005	0	
-4.17105e-005	-8.94148e-005	0	
-3.29625e-005	-8.83659e-005	0	
-2.42319e-005	-8.74047e-005	0	
-2.1348e-005	-8.56377e-005	0	
-1.85726e-005	-8.37177e-005	0	
-1.58853e-005	-8.16198e-005	0	
-1.3233e-005	-7.94905e-005	0	
-1.0406e-005	-7.71426e-005	0	
-7.5531e-006	-7.36681e-005	0	
-6.18453e-006	-7.44656e-005	0	
-4.06046e-006	-7.50159e-005	0	
-9.91773e-007	-7.49063e-005	0	
-1.57606e-006	-7.53255e-005	0	
-1.20095e-006	-7.57543e-005	0	
-7.99091e-007	-7.60407e-005	0	
-5.77925e-007	-7.61985e-005	0	
-4.11722e-007	-7.63305e-005	0	
-2.79381e-007	-7.64418e-005	0	
-1.71588e-007	-7.65317e-005	0	
-8.03306e-008	-7.65943e-005	0	
4.11466e-013	-7.66169e-005	0	
8.03312e-008	-7.65943e-005	0	
1.71589e-007	-7.65317e-005	0	
2.79381e-007	-7.64418e-005	0	
4.11723e-007	-7.63305e-005	0	
5.77926e-007	-7.61985e-005	0	
7.99092e-007	-7.60407e-005	0	
1.20096e-006	-7.57543e-005	0	
1.57606e-006	-7.53255e-005	0	
9.91774e-007	-7.49063e-005	0	
4.06046e-006	-7.50159e-005	0	
6.18453e-006	-7.44656e-005	0	
7.5531e-006	-7.36681e-005	0	
1.0406e-005	-7.71426e-005	0	
1.3233e-005	-7.94905e-005	0	
1.58853e-005	-8.16198e-005	0	
1.85726e-005	-8.37177e-005	0	
2.1348e-005	-8.56377e-005	0	
2.42319e-005	-8.74047e-005	0	
3.29625e-005	-8.83659e-005	0	
4.17105e-005	-8.94148e-005	0	
-4.42331e-005	-9.83457e-005	0	
-3.53004e-005	-9.7311e-005	0	
-2.63851e-005	-9.63407e-005	0	
-2.35834e-005	-9.43961e-005	0	
-2.08613e-005	-9.22986e-005	0	
-1.81796e-005	-9.00858e-005	0	
-1.54916e-005	-8.77534e-005	0	
-1.26711e-005	-8.54837e-005	0	
-9.69275e-006	-8.30717e-005	0	
-7.18823e-006	-7.96286e-005	0	
-5.89207e-006	-8.07097e-005	0	
-2.85337e-006	-8.19795e-005	0	
-1.38258e-006	-8.30725e-005	0	
-1.12645e-006	-8.20698e-005	0	
-7.18033e-007	-8.21535e-005	0	
-4.53856e-007	-8.23497e-005	0	
-3.23112e-007	-8.24535e-005	0	
-2.01005e-007	-8.25876e-005	0	
-1.038e-007	-8.27191e-005	0	
-4.07109e-008	-8.28147e-005	0	
4.97958e-013	-8.28496e-005	0	
4.07117e-008	-8.28146e-005	0	
1.03801e-007	-8.27191e-005	0	
2.01005e-007	-8.25876e-005	0	
3.23112e-007	-8.24535e-005	0	
4.53857e-007	-8.23497e-005	0	
7.18034e-007	-8.21535e-005	0	
1.12646e-006	-8.20698e-005	0	
1.38258e-006	-8.30725e-005	0	
2.85337e-006	-8.19795e-005	0	
5.89207e-006	-8.07097e-005	0	
7.18823e-006	-7.96286e-005	0	
9.69275e-006	-8.30717e-005	0	
1.26711e-005	-8.54837e-005	0	
1.54916e-005	-8.77534e-005	0	
1.81796e-005	-9.00858e-005	0	
2.08613e-005	-9.22986e-005	0	
2.35834e-005	-9.43961e-005	0	
2.63851e-005	-9.63407e-005	0	
3.53004e-005	-9.7311e-005	0	
4.42331e-005	-9.83457e-005	0	
-4.66945e-005	-0.000107442	0	
-3.76321e-005	-0.000106422	0	
-2.85866e-005	-0.000105441	0	
-2.58772e-005	-0.000103338	0	
-2.32116e-005	-0.000101097	0	
-2.05378e-005	-9.87595e-005	0	
-1.78093e-005	-9.63511e-005	0	
-1.49719e-005	-9.38821e-005	0	
-1.1923e-005	-9.14887e-005	0	
-8.95806e-006	-8.93571e-005	0	
-7.87934e-006	-8.79285e-005	0	
-4.62452e-006	-8.77983e-005	0	
-2.33093e-006	-8.8322e-005	0	
-8.21978e-007	-8.91485e-005	0	
-6.48086e-007	-8.83344e-005	0	
-3.78461e-007	-8.83828e-005	0	
-2.15845e-007	-8.85539e-005	0	
-7.01318e-008	-8.87417e-005	0	
1.90284e-008	-8.89545e-005	0	
3.07736e-008	-8.91002e-005	0	
5.17215e-013	-8.91521e-005	0	
-3.07727e-008	-8.91002e-005	0	
-1.90279e-008	-8.89545e-005	0	
7.01319e-008	-8.87417e-005	0	
2.15845e-007	-8.85539e-005	0	
3.78461e-007	-8.83828e-005	0	
6.48086e-007	-8.83344e-005	0	
8.21979e-007	-8.91485e-005	0	
2.33093e-006	-8.8322e-005	0	
4.62452e-006	-8.77983e-005	0	
7.87934e-006	-8.79285e-005	0	
8.95806e-006	-8.93571e-005	0	
1.1923e-005	-9.14887e-005	0	
1.49719e-005	-9.38821e-005	0	
1.78093e-005	-9.63511e-005	0	
2.05378e-005	-9.87595e-005	0	
2.32116e-005	-0.000101097	0	
2.58772e-005	-0.000103338	0	
2.85866e-005	-0.000105441	0	
3.76321e-005	-0.000106422	0	
4.66945e-005	-0.000107442	0	
-4.90912e-005	-0.000116647	0	
-3.99586e-005	-0.000115643	0	
-3.08421e-005	-0.00011465	0	