# vtk DataFile Version 4.1
vtk output
ASCII
DATASET UNSTRUCTURED_GRID

POINTS	7401	float
0	0	0	
0	1	0	
0	2	0	
0	3	0	
0	4	0	
0	5	0	
0	6	0	
0	7	0	
0	8	0	
0	9	0	
0	10	0	
0	11	0	
0	12	0	
0	13	0	
0	14	0	
0	15	0	
0	16	0	
0	17	0	
0	18	0	
0	19	0	
0	20	0	
0	21	0	
0	22	0	
0	23	0	
0	24	0	
0	25	0	
0	26	0	
0	27	0	
0	28	0	
0	29	0	
0	30	0	
0	31	0	
0	32	0	
0	33	0	
0	34	0	
0	35	0	
0	36	0	
0	37	0	
0	38	0	
0	39	0	
0	40	0	
1	0	0	
1	1	0	
1	2	0	
1	3	0	
1	4	0	
1	5	0	
1	6	0	
1	7	0	
1	8	0	
1	9	0	
1	10	0	
1	11	0	
1	12	0	
1	13	0	
1	14	0	
1	15	0	
1	16	0	
1	17	0	
1	18	0	
1	19	0	
1	20	0	
1	21	0	
1	22	0	
1	23	0	
1	24	0	
1	25	0	
1	26	0	
1	27	0	
1	28	0	
1	29	0	
1	30	0	
1	31	0	
1	32	0	
1	33	0	
1	34	0	
1	35	0	
1	36	0	
1	37	0	
1	38	0	
1	39	0	
1	40	0	
2	0	0	
2	1	0	
2	2	0	
2	3	0	
2	4	0	
2	5	0	
2	6	0	
2	7	0	
2	8	0	
2	9	0	
2	10	0	
2	11	0	
2	12	0	
2	13	0	
2	14	0	
2	15	0	
2	16	0	
2	17	0	
2	18	0	
2	19	0	
2	20	0	
2	21	0	
2	22	0	
2	23	0	
2	24	0	
2	25	0	
2	26	0	
2	27	0	
2	28	0	
2	29	0	
2	30	0	
2	31	0	
2	32	0	
2	33	0	
2	34	0	
2	35	0	
2	36	0	
2	37	0	
2	38	0	
2	39	0	
2	40	0	
3	0	0	
3	1	0	
3	2	0	
3	3	0	
3	4	0	
3	5	0	
3	6	0	
3	7	0	
3	8	0	
3	9	0	
3	10	0	
3	11	0	
3	12	0	
3	13	0	
3	14	0	
3	15	0	
3	16	0	
3	17	0	
3	18	0	
3	19	0	
3	20	0	
3	21	0	
3	22	0	
3	23	0	
3	24	0	
3	25	0	
3	26	0	
3	27	0	
3	28	0	
3	29	0	
3	30	0	
3	31	0	
3	32	0	
3	33	0	
3	34	0	
3	35	0	
3	36	0	
3	37	0	
3	38	0	
3	39	0	
3	40	0	
4	0	0	
4	1	0	
4	2	0	
4	3	0	
4	4	0	
4	5	0	
4	6	0	
4	7	0	
4	8	0	
4	9	0	
4	10	0	
4	11	0	
4	12	0	
4	13	0	
4	14	0	
4	15	0	
4	16	0	
4	17	0	
4	18	0	
4	19	0	
4	20	0	
4	21	0	
4	22	0	
4	23	0	
4	24	0	
4	25	0	
4	26	0	
4	27	0	
4	28	0	
4	29	0	
4	30	0	
4	31	0	
4	32	0	
4	33	0	
4	34	0	
4	35	0	
4	36	0	
4	37	0	
4	38	0	
4	39	0	
4	40	0	
5	0	0	
5	1	0	
5	2	0	
5	3	0	
5	4	0	
5	5	0	
5	6	0	
5	7	0	
5	8	0	
5	9	0	
5	10	0	
5	11	0	
5	12	0	
5	13	0	
5	14	0	
5	15	0	
5	16	0	
5	17	0	
5	18	0	
5	19	0	
5	20	0	
5	21	0	
5	22	0	
5	23	0	
5	24	0	
5	25	0	
5	26	0	
5	27	0	
5	28	0	
5	29	0	
5	30	0	
5	31	0	
5	32	0	
5	33	0	
5	34	0	
5	35	0	
5	36	0	
5	37	0	
5	38	0	
5	39	0	
5	40	0	
6	0	0	
6	1	0	
6	2	0	
6	3	0	
6	4	0	
6	5	0	
6	6	0	
6	7	0	
6	8	0	
6	9	0	
6	10	0	
6	11	0	
6	12	0	
6	13	0	
6	14	0	
6	15	0	
6	16	0	
6	17	0	
6	18	0	
6	19	0	
6	20	0	
6	21	0	
6	22	0	
6	23	0	
6	24	0	
6	25	0	
6	26	0	
6	27	0	
6	28	0	
6	29	0	
6	30	0	
6	31	0	
6	32	0	
6	33	0	
6	34	0	
6	35	0	
6	36	0	
6	37	0	
6	38	0	
6	39	0	
6	40	0	
7	0	0	
7	1	0	
7	2	0	
7	3	0	
7	4	0	
7	5	0	
7	6	0	
7	7	0	
7	8	0	
7	9	0	
7	10	0	
7	11	0	
7	12	0	
7	13	0	
7	14	0	
7	15	0	
7	16	0	
7	17	0	
7	18	0	
7	19	0	
7	20	0	
7	21	0	
7	22	0	
7	23	0	
7	24	0	
7	25	0	
7	26	0	
7	27	0	
7	28	0	
7	29	0	
7	30	0	
7	31	0	
7	32	0	
7	33	0	
7	34	0	
7	35	0	
7	36	0	
7	37	0	
7	38	0	
7	39	0	
7	40	0	
8	0	0	
8	1	0	
8	2	0	
8	3	0	
8	4	0	
8	5	0	
8	6	0	
8	7	0	
8	8	0	
8	9	0	
8	10	0	
8	11	0	
8	12	0	
8	13	0	
8	14	0	
8	15	0	
8	16	0	
8	17	0	
8	18	0	
8	19	0	
8	20	0	
8	21	0	
8	22	0	
8	23	0	
8	24	0	
8	25	0	
8	26	0	
8	27	0	
8	28	0	
8	29	0	
8	30	0	
8	31	0	
8	32	0	
8	33	0	
8	34	0	
8	35	0	
8	36	0	
8	37	0	
8	38	0	
8	39	0	
8	40	0	
9	0	0	
9	1	0	
9	2	0	
9	3	0	
9	4	0	
9	5	0	
9	6	0	
9	7	0	
9	8	0	
9	9	0	
9	10	0	
9	11	0	
9	12	0	
9	13	0	
9	14	0	
9	15	0	
9	16	0	
9	17	0	
9	18	0	
9	19	0	
9	20	0	
9	21	0	
9	22	0	
9	23	0	
9	24	0	
9	25	0	
9	26	0	
9	27	0	
9	28	0	
9	29	0	
9	30	0	
9	31	0	
9	32	0	
9	33	0	
9	34	0	
9	35	0	
9	36	0	
9	37	0	
9	38	0	
9	39	0	
9	40	0	
10	0	0	
10	1	0	
10	2	0	
10	3	0	
10	4	0	
10	5	0	
10	6	0	
10	7	0	
10	8	0	
10	9	0	
10	10	0	
10	11	0	
10	12	0	
10	13	0	
10	14	0	
10	15	0	
10	16	0	
10	17	0	
10	18	0	
10	19	0	
10	20	0	
10	21	0	
10	22	0	
10	23	0	
10	24	0	
10	25	0	
10	26	0	
10	27	0	
10	28	0	
10	29	0	
10	30	0	
10	31	0	
10	32	0	
10	33	0	
10	34	0	
10	35	0	
10	36	0	
10	37	0	
10	38	0	
10	39	0	
10	40	0	
11	0	0	
11	1	0	
11	2	0	
11	3	0	
11	4	0	
11	5	0	
11	6	0	
11	7	0	
11	8	0	
11	9	0	
11	10	0	
11	11	0	
11	12	0	
11	13	0	
11	14	0	
11	15	0	
11	16	0	
11	17	0	
11	18	0	
11	19	0	
11	20	0	
11	21	0	
11	22	0	
11	23	0	
11	24	0	
11	25	0	
11	26	0	
11	27	0	
11	28	0	
11	29	0	
11	30	0	
11	31	0	
11	32	0	
11	33	0	
11	34	0	
11	35	0	
11	36	0	
11	37	0	
11	38	0	
11	39	0	
11	40	0	
12	0	0	
12	1	0	
12	2	0	
12	3	0	
12	4	0	
12	5	0	
12	6	0	
12	7	0	
12	8	0	
12	9	0	
12	10	0	
12	11	0	
12	12	0	
12	13	0	
12	14	0	
12	15	0	
12	16	0	
12	17	0	
12	18	0	
12	19	0	
12	20	0	
12	21	0	
12	22	0	
12	23	0	
12	24	0	
12	25	0	
12	26	0	
12	27	0	
12	28	0	
12	29	0	
12	30	0	
12	31	0	
12	32	0	
12	33	0	
12	34	0	
12	35	0	
12	36	0	
12	37	0	
12	38	0	
12	39	0	
12	40	0	
13	0	0	
13	1	0	
13	2	0	
13	3	0	
13	4	0	
13	5	0	
13	6	0	
13	7	0	
13	8	0	
13	9	0	
13	10	0	
13	11	0	
13	12	0	
13	13	0	
13	14	0	
13	15	0	
13	16	0	
13	17	0	
13	18	0	
13	19	0	
13	20	0	
13	21	0	
13	22	0	
13	23	0	
13	24	0	
13	25	0	
13	26	0	
13	27	0	
13	28	0	
13	29	0	
13	30	0	
13	31	0	
13	32	0	
13	33	0	
13	34	0	
13	35	0	
13	36	0	
13	37	0	
13	38	0	
13	39	0	
13	40	0	
14	0	0	
14	1	0	
14	2	0	
14	3	0	
14	4	0	
14	5	0	
14	6	0	
14	7	0	
14	8	0	
14	9	0	
14	10	0	
14	11	0	
14	12	0	
14	13	0	
14	14	0	
14	15	0	
14	16	0	
14	17	0	
14	18	0	
14	19	0	
14	20	0	
14	21	0	
14	22	0	
14	23	0	
14	24	0	
14	25	0	
14	26	0	
14	27	0	
14	28	0	
14	29	0	
14	30	0	
14	31	0	
14	32	0	
14	33	0	
14	34	0	
14	35	0	
14	36	0	
14	37	0	
14	38	0	
14	39	0	
14	40	0	
15	0	0	
15	1	0	
15	2	0	
15	3	0	
15	4	0	
15	5	0	
15	6	0	
15	7	0	
15	8	0	
15	9	0	
15	10	0	
15	11	0	
15	12	0	
15	13	0	
15	14	0	
15	15	0	
15	16	0	
15	17	0	
15	18	0	
15	19	0	
15	20	0	
15	21	0	
15	22	0	
15	23	0	
15	24	0	
15	25	0	
15	26	0	
15	27	0	
15	28	0	
15	29	0	
15	30	0	
15	31	0	
15	32	0	
15	33	0	
15	34	0	
15	35	0	
15	36	0	
15	37	0	
15	38	0	
15	39	0	
15	40	0	
16	0	0	
16	1	0	
16	2	0	
16	3	0	
16	4	0	
16	5	0	
16	6	0	
16	7	0	
16	8	0	
16	9	0	
16	10	0	
16	11	0	
16	12	0	
16	13	0	
16	14	0	
16	15	0	
16	16	0	
16	17	0	
16	18	0	
16	19	0	
16	20	0	
16	21	0	
16	22	0	
16	23	0	
16	24	0	
16	25	0	
16	26	0	
16	27	0	
16	28	0	
16	29	0	
16	30	0	
16	31	0	
16	32	0	
16	33	0	
16	34	0	
16	35	0	
16	36	0	
16	37	0	
16	38	0	
16	39	0	
16	40	0	
17	0	0	
17	1	0	
17	2	0	
17	3	0	
17	4	0	
17	5	0	
17	6	0	
17	7	0	
17	8	0	
17	9	0	
17	10	0	
17	11	0	
17	12	0	
17	13	0	
17	14	0	
17	15	0	
17	16	0	
17	17	0	
17	18	0	
17	19	0	
17	20	0	
17	21	0	
17	22	0	
17	23	0	
17	24	0	
17	25	0	
17	26	0	
17	27	0	
17	28	0	
17	29	0	
17	30	0	
17	31	0	
17	32	0	
17	33	0	
17	34	0	
17	35	0	
17	36	0	
17	37	0	
17	38	0	
17	39	0	
17	40	0	
18	0	0	
18	1	0	
18	2	0	
18	3	0	
18	4	0	
18	5	0	
18	6	0	
18	7	0	
18	8	0	
18	9	0	
18	10	0	
18	11	0	
18	12	0	
18	13	0	
18	14	0	
18	15	0	
18	16	0	
18	17	0	
18	18	0	
18	19	0	
18	20	0	
18	21	0	
18	22	0	
18	23	0	
18	24	0	
18	25	0	
18	26	0	
18	27	0	
18	28	0	
18	29	0	
18	30	0	
18	31	0	
18	32	0	
18	33	0	
18	34	0	
18	35	0	
18	36	0	
18	37	0	
18	38	0	
18	39	0	
18	40	0	
19	0	0	
19	1	0	
19	2	0	
19	3	0	
19	4	0	
19	5	0	
19	6	0	
19	7	0	
19	8	0	
19	9	0	
19	10	0	
19	11	0	
19	12	0	
19	13	0	
19	14	0	
19	15	0	
19	16	0	
19	17	0	
19	18	0	
19	19	0	
19	20	0	
19	21	0	
19	22	0	
19	23	0	
19	24	0	
19	25	0	
19	26	0	
19	27	0	
19	28	0	
19	29	0	
19	30	0	
19	31	0	
19	32	0	
19	33	0	
19	34	0	
19	35	0	
19	36	0	
19	37	0	
19	38	0	
19	39	0	
19	40	0	
20	0	0	
20	1	0	
20	2	0	
20	3	0	
20	4	0	
20	5	0	
20	6	0	
20	7	0	
20	8	0	
20	9	0	
20	10	0	
20	11	0	
20	12	0	
20	13	0	
20	14	0	
20	15	0	
20	16	0	
20	17	0	
20	18	0	
20	19	0	
20	20	0	
20	21	0	
20	22	0	
20	23	0	
20	24	0	
20	25	0	
20	26	0	
20	27	0	
20	28	0	
20	29	0	
20	30	0	
20	31	0	
20	32	0	
20	33	0	
20	34	0	
20	35	0	
20	36	0	
20	37	0	
20	38	0	
20	39	0	
20	40	0	
21	0	0	
21	1	0	
21	2	0	
21	3	0	
21	4	0	
21	5	0	
21	6	0	
21	7	0	
21	8	0	
21	9	0	
21	10	0	
21	11	0	
21	12	0	
21	13	0	
21	14	0	
21	15	0	
21	16	0	
21	17	0	
21	18	0	
21	19	0	
21	20	0	
21	21	0	
21	22	0	
21	23	0	
21	24	0	
21	25	0	
21	26	0	
21	27	0	
21	28	0	
21	29	0	
21	30	0	
21	31	0	
21	32	0	
21	33	0	
21	34	0	
21	35	0	
21	36	0	
21	37	0	
21	38	0	
21	39	0	
21	40	0	
22	0	0	
22	1	0	
22	2	0	
22	3	0	
22	4	0	
22	5	0	
22	6	0	
22	7	0	
22	8	0	
22	9	0	
22	10	0	
22	11	0	
22	12	0	
22	13	0	
22	14	0	
22	15	0	
22	16	0	
22	17	0	
22	18	0	
22	19	0	
22	20	0	
22	21	0	
22	22	0	
22	23	0	
22	24	0	
22	25	0	
22	26	0	
22	27	0	
22	28	0	
22	29	0	
22	30	0	
22	31	0	
22	32	0	
22	33	0	
22	34	0	
22	35	0	
22	36	0	
22	37	0	
22	38	0	
22	39	0	
22	40	0	
23	0	0	
23	1	0	
23	2	0	
23	3	0	
23	4	0	
23	5	0	
23	6	0	
23	7	0	
23	8	0	
23	9	0	
23	10	0	
23	11	0	
23	12	0	
23	13	0	
23	14	0	
23	15	0	
23	16	0	
23	17	0	
23	18	0	
23	19	0	
23	20	0	
23	21	0	
23	22	0	
23	23	0	
23	24	0	
23	25	0	
23	26	0	
23	27	0	
23	28	0	
23	29	0	
23	30	0	
23	31	0	
23	32	0	
23	33	0	
23	34	0	
23	35	0	
23	36	0	
23	37	0	
23	38	0	
23	39	0	
23	40	0	
24	0	0	
24	1	0	
24	2	0	
24	3	0	
24	4	0	
24	5	0	
24	6	0	
24	7	0	
24	8	0	
24	9	0	
24	10	0	
24	11	0	
24	12	0	
24	13	0	
24	14	0	
24	15	0	
24	16	0	
24	17	0	
24	18	0	
24	19	0	
24	20	0	
24	21	0	
24	22	0	
24	23	0	
24	24	0	
24	25	0	
24	26	0	
24	27	0	
24	28	0	
24	29	0	
24	30	0	
24	31	0	
24	32	0	
24	33	0	
24	34	0	
24	35	0	
24	36	0	
24	37	0	
24	38	0	
24	39	0	
24	40	0	
25	0	0	
25	1	0	
25	2	0	
25	3	0	
25	4	0	
25	5	0	
25	6	0	
25	7	0	
25	8	0	
25	9	0	
25	10	0	
25	11	0	
25	12	0	
25	13	0	
25	14	0	
25	15	0	
25	16	0	
25	17	0	
25	18	0	
25	19	0	
25	20	0	
25	21	0	
25	22	0	
25	23	0	
25	24	0	
25	25	0	
25	26	0	
25	27	0	
25	28	0	
25	29	0	
25	30	0	
25	31	0	
25	32	0	
25	33	0	
25	34	0	
25	35	0	
25	36	0	
25	37	0	
25	38	0	
25	39	0	
25	40	0	
26	0	0	
26	1	0	
26	2	0	
26	3	0	
26	4	0	
26	5	0	
26	6	0	
26	7	0	
26	8	0	
26	9	0	
26	10	0	
26	11	0	
26	12	0	
26	13	0	
26	14	0	
26	15	0	
26	16	0	
26	17	0	
26	18	0	
26	19	0	
26	20	0	
26	21	0	
26	22	0	
26	23	0	
26	24	0	
26	25	0	
26	26	0	
26	27	0	
26	28	0	
26	29	0	
26	30	0	
26	31	0	
26	32	0	
26	33	0	
26	34	0	
26	35	0	
26	36	0	
26	37	0	
26	38	0	
26	39	0	
26	40	0	
27	0	0	
27	1	0	
27	2	0	
27	3	0	
27	4	0	
27	5	0	
27	6	0	
27	7	0	
27	8	0	
27	9	0	
27	10	0	
27	11	0	
27	12	0	
27	13	0	
27	14	0	
27	15	0	
27	16	0	
27	17	0	
27	18	0	
27	19	0	
27	20	0	
27	21	0	
27	22	0	
27	23	0	
27	24	0	
27	25	0	
27	26	0	
27	27	0	
27	28	0	
27	29	0	
27	30	0	
27	31	0	
27	32	0	
27	33	0	
27	34	0	
27	35	0	
27	36	0	
27	37	0	
27	38	0	
27	39	0	
27	40	0	
28	0	0	
28	1	0	
28	2	0	
28	3	0	
28	4	0	
28	5	0	
28	6	0	
28	7	0	
28	8	0	
28	9	0	
28	10	0	
28	11	0	
28	12	0	
28	13	0	
28	14	0	
28	15	0	
28	16	0	
28	17	0	
28	18	0	
28	19	0	
28	20	0	
28	21	0	
28	22	0	
28	23	0	
28	24	0	
28	25	0	
28	26	0	
28	27	0	
28	28	0	
28	29	0	
28	30	0	
[...]
POINT_DATA	7401
VECTORS d float
-1.84929e-016	-9.96051e-017	0	
-5.34017e-017	-1.99628e-017	0	
1.4085e-017	1.29329e-018	0	
-2.90385e-017	-3.00826e-018	0	
-1.545e-017	-1.72113e-017	0	
-1.10473e-017	-2.69318e-017	0	
-1.01536e-017	-2.60109e-017	0	
-8.90224e-018	-2.55259e-017	0	
-7.47167e-018	-2.56984e-017	0	
-6.32995e-018	-2.56013e-017	0	
-5.39347e-018	-2.55565e-017	0	
-4.64487e-018	-2.54767e-017	0	
-4.01231e-018	-2.53794e-017	0	
-3.45308e-018	-2.52755e-017	0	
-2.93412e-018	-2.51729e-017	0	
-2.43463e-018	-2.50802e-017	0	
-1.94529e-018	-2.50019e-017	0	
-1.459e-018	-2.49407e-017	0	
-9.72491e-019	-2.48974e-017	0	
-4.86482e-019	-2.48714e-017	0	
1.0937e-023	-2.48628e-017	0	
4.86501e-019	-2.48714e-017	0	
9.72503e-019	-2.48974e-017	0	
1.459e-018	-2.49407e-017	0	
1.94529e-018	-2.50019e-017	0	
2.43463e-018	-2.50802e-017	0	
2.93413e-018	-2.51729e-017	0	
3.45309e-018	-2.52755e-017	0	
4.01232e-018	-2.53794e-017	0	
4.64487e-018	-2.54767e-017	0	
5.39348e-018	-2.55565e-017	0	
6.32996e-018	-2.56013e-017	0	
7.47169e-018	-2.56984e-017	0	
8.90226e-018	-2.55259e-017	0	
1.01536e-017	-2.60109e-017	0	
1.10473e-017	-2.69318e-017	0	
1.54501e-017	-1.72113e-017	0	
2.90385e-017	-3.00826e-018	0	
-1.4085e-017	1.29329e-018	0	
5.34017e-017	-1.99628e-017	0	
1.84929e-016	-9.96051e-017	0	
-5.7831e-006	-5.50325e-006	0	
-2.90207e-006	-4.22373e-006	0	
-1.58694e-006	-4.08253e-006	0	
-1.52758e-006	-4.84649e-006	0	
-6.3833e-007	-4.07298e-006	0	
-5.15801e-007	-4.13549e-006	0	
-4.6819e-007	-4.14222e-006	0	
-4.08306e-007	-4.09379e-006	0	
-3.40929e-007	-4.07402e-006	0	
-2.88772e-007	-4.05446e-006	0	
-2.47945e-007	-4.03468e-006	0	
-2.15044e-007	-4.01417e-006	0	
-1.87026e-007	-3.99341e-006	0	
-1.61702e-007	-3.97361e-006	0	
-1.37772e-007	-3.95565e-006	0	
-1.14494e-007	-3.94014e-006	0	
-9.14744e-008	-3.92746e-006	0	
-6.8557e-008	-3.91771e-006	0	
-4.56839e-008	-3.91086e-006	0	
-2.28339e-008	-3.90681e-006	0	
1.35907e-013	-3.90547e-006	0	
2.28341e-008	-3.90681e-006	0	
4.5684e-008	-3.91086e-006	0	
6.8557e-008	-3.91771e-006	0	
9.14744e-008	-3.92746e-006	0	
1.14494e-007	-3.94014e-006	0	
1.37772e-007	-3.95565e-006	0	
1.61702e-007	-3.97361e-006	0	
1.87026e-007	-3.99341e-006	0	
2.15044e-007	-4.01417e-006	0	
2.47945e-007	-4.03468e-006	0	
2.88772e-007	-4.05446e-006	0	
3.40929e-007	-4.07402e-006	0	
4.08307e-007	-4.09379e-006	0	
4.6819e-007	-4.14222e-006	0	
5.15802e-007	-4.13549e-006	0	
6.3833e-007	-4.07298e-006	0	
1.52758e-006	-4.84649e-006	0	
1.58694e-006	-4.08253e-006	0	
2.90207e-006	-4.22373e-006	0	
5.7831e-006	-5.50325e-006	0	
-9.29963e-006	-1.00909e-005	0	
-5.70677e-006	-8.84417e-006	0	
-3.66933e-006	-8.14372e-006	0	
-2.15704e-006	-8.25234e-006	0	
-5.62052e-007	-8.71414e-006	0	
-1.12075e-006	-8.48618e-006	0	
-9.85228e-007	-8.37598e-006	0	
-8.35258e-007	-8.33775e-006	0	
-7.0343e-007	-8.27122e-006	0	
-5.96886e-007	-8.21107e-006	0	
-5.16317e-007	-8.15053e-006	0	
-4.50094e-007	-8.09429e-006	0	
-3.92632e-007	-8.04318e-006	0	
-3.40052e-007	-7.99769e-006	0	
-2.89856e-007	-7.95855e-006	0	
-2.4074e-007	-7.92606e-006	0	
-1.92126e-007	-7.90018e-006	0	
-1.43809e-007	-7.88066e-006	0	
-9.57261e-008	-7.86708e-006	0	
-4.78159e-008	-7.8591e-006	0	
1.75589e-013	-7.85646e-006	0	
4.78162e-008	-7.8591e-006	0	
9.57263e-008	-7.86708e-006	0	
1.43809e-007	-7.88066e-006	0	
1.92126e-007	-7.90018e-006	0	
2.4074e-007	-7.92606e-006	0	
2.89856e-007	-7.95855e-006	0	
3.40052e-007	-7.99769e-006	0	
3.92632e-007	-8.04318e-006	0	
4.50094e-007	-8.09429e-006	0	
5.16317e-007	-8.15053e-006	0	
5.96886e-007	-8.21107e-006	0	
7.0343e-007	-8.27122e-006	0	
8.35259e-007	-8.33775e-006	0	
9.85228e-007	-8.37598e-006	0	
1.12075e-006	-8.48618e-006	0	
5.62052e-007	-8.71414e-006	0	
2.15704e-006	-8.25234e-006	0	
3.66933e-006	-8.14372e-006	0	
5.70677e-006	-8.84417e-006	0	
9.29963e-006	-1.00909e-005	0	
-1.2189e-005	-1.45004e-005	0	
-8.27456e-006	-1.34169e-005	0	
-5.43725e-006	-1.27746e-005	0	
-3.38509e-006	-1.2594e-005	0	
-6.35478e-007	-1.24424e-005	0	
-1.63995e-006	-1.29186e-005	0	
-1.53071e-006	-1.28552e-005	0	
-1.28576e-006	-1.27578e-005	0	
-1.09832e-006	-1.25968e-005	0	
-9.42854e-007	-1.24574e-005	0	
-8.15663e-007	-1.2337e-005	0	
-7.12263e-007	-1.22315e-005	0	
-6.21255e-007	-1.21417e-005	0	
-5.37373e-007	-1.2066e-005	0	
-4.57158e-007	-1.20035e-005	0	
-3.7878e-007	-1.19532e-005	0	
-3.01561e-007	-1.19143e-005	0	
-2.25266e-007	-1.18854e-005	0	
-1.49727e-007	-1.18655e-005	0	
-7.47241e-008	-1.18539e-005	0	
1.18759e-013	-1.18501e-005	0	
7.47243e-008	-1.18539e-005	0	
1.49727e-007	-1.18655e-005	0	
2.25266e-007	-1.18854e-005	0	
3.01561e-007	-1.19143e-005	0	
3.7878e-007	-1.19532e-005	0	
4.57158e-007	-1.20035e-005	0	
5.37373e-007	-1.2066e-005	0	
6.21255e-007	-1.21417e-005	0	
7.12263e-007	-1.22315e-005	0	
8.15662e-007	-1.2337e-005	0	
9.42854e-007	-1.24574e-005	0	
1.09832e-006	-1.25968e-005	0	
1.28576e-006	-1.27578e-005	0	
1.53071e-006	-1.28552e-005	0	
1.63995e-006	-1.29186e-005	0	
6.35478e-007	-1.24424e-005	0	
3.38509e-006	-1.2594e-005	0	
5.43725e-006	-1.27746e-005	0	
8.27456e-006	-1.34169e-005	0	
1.2189e-005	-1.45004e-005	0	
-1.47924e-005	-1.89055e-005	0	
-1.05729e-005	-1.79169e-005	0	
-6.83701e-006	-1.72961e-005	0	
-4.55198e-006	-1.75627e-005	0	
-2.70785e-006	-1.81788e-005	0	
-2.4815e-006	-1.905e-005	0	
-2.22663e-006	-1.77252e-005	0	
-1.88191e-006	-1.73105e-005	0	
-1.55792e-006	-1.70415e-005	0	
-1.33998e-006	-1.67695e-005	0	
-1.15853e-006	-1.65706e-005	0	
-1.00665e-006	-1.64102e-005	0	
-8.76036e-007	-1.62773e-005	0	
-7.55326e-007	-1.61694e-005	0	
-6.40043e-007	-1.60834e-005	0	
-5.28207e-007	-1.60165e-005	0	
-4.1909e-007	-1.59657e-005	0	
-3.1227e-007	-1.59286e-005	0	
-2.07211e-007	-1.59032e-005	0	
-1.03316e-007	-1.58884e-005	0	
2.6199e-014	-1.58836e-005	0	
1.03316e-007	-1.58884e-005	0	
2.07211e-007	-1.59032e-005	0	
3.1227e-007	-1.59286e-005	0	
4.1909e-007	-1.59657e-005	0	
5.28207e-007	-1.60165e-005	0	
6.40043e-007	-1.60834e-005	0	
7.55326e-007	-1.61694e-005	0	
8.76036e-007	-1.62773e-005	0	
1.00665e-006	-1.64102e-005	0	
1.15853e-006	-1.65706e-005	0	
1.33997e-006	-1.67695e-005	0	
1.55792e-006	-1.70415e-005	0	
1.88191e-006	-1.73105e-005	0	
2.22663e-006	-1.77252e-005	0	
2.4815e-006	-1.905e-005	0	
2.70785e-006	-1.81788e-005	0	
4.55198e-006	-1.75627e-005	0	
6.83701e-006	-1.72961e-005	0	
1.05729e-005	-1.79169e-005	0	
1.47924e-005	-1.89055e-005	0	
-1.72588e-005	-2.34218e-005	0	
-1.27811e-005	-2.24252e-005	0	
-8.12893e-006	-2.1625e-005	0	
-5.65503e-006	-2.17416e-005	0	
-4.20416e-006	-2.20895e-005	0	
-3.35071e-006	-2.26597e-005	0	
-3.05243e-006	-2.34159e-005	0	
-2.66656e-006	-2.20288e-005	0	
-2.16561e-006	-2.14399e-005	0	
-1.7908e-006	-2.11165e-005	0	
-1.54131e-006	-2.08226e-005	0	
-1.33596e-006	-2.0607e-005	0	
-1.15661e-006	-2.04343e-005	0	
-9.92782e-007	-2.02964e-005	0	
-8.3653e-007	-2.01906e-005	0	
-6.8687e-007	-2.01104e-005	0	
-5.42928e-007	-2.00505e-005	0	
-4.03525e-007	-2.0007e-005	0	
-2.67356e-007	-1.99773e-005	0	
-1.33201e-007	-1.99601e-005	0	
-4.58075e-014	-1.99544e-005	0	
1.332e-007	-1.99601e-005	0	
2.67356e-007	-1.99773e-005	0	
4.03525e-007	-2.0007e-005	0	
5.42928e-007	-2.00505e-005	0	
6.8687e-007	-2.01104e-005	0	
8.3653e-007	-2.01906e-005	0	
9.92782e-007	-2.02964e-005	0	
1.15661e-006	-2.04343e-005	0	
1.33596e-006	-2.0607e-005	0	
1.54131e-006	-2.08226e-005	0	
1.7908e-006	-2.11165e-005	0	
2.16561e-006	-2.14399e-005	0	
2.66656e-006	-2.20288e-005	0	
3.05243e-006	-2.34159e-005	0	
3.35071e-006	-2.26597e-005	0	
4.20416e-006	-2.20895e-005	0	
5.65503e-006	-2.17416e-005	0	
8.12893e-006	-2.1625e-005	0	
1.27811e-005	-2.24252e-005	0	
1.72588e-005	-2.34218e-005	0	
-1.96765e-005	-2.80879e-005	0	
-1.49656e-005	-2.71016e-005	0	
-1.0233e-005	-2.62184e-005	0	
-6.94973e-006	-2.59911e-005	0	
-5.34314e-006	-2.58951e-005	0	
-4.43699e-006	-2.59995e-005	0	
-3.74923e-006	-2.6429e-005	0	
-3.36556e-006	-2.70526e-005	0	
-2.84258e-006	-2.58368e-005	0	
-2.32148e-006	-2.53486e-005	0	
-1.94338e-006	-2.50733e-005	0	
-1.68928e-006	-2.48002e-005	0	
-1.4603e-006	-2.45923e-005	0	
-1.24418e-006	-2.4435e-005	0	
-1.04133e-006	-2.43179e-005	0	
-8.50638e-007	-2.42306e-005	0	
-6.70241e-007	-2.41653e-005	0	
-4.97223e-007	-2.41178e-005	0	
-3.29083e-007	-2.40853e-005	0	
-1.63858e-007	-2.40665e-005	0	
-9.19724e-014	-2.40603e-005	0	
1.63858e-007	-2.40665e-005	0	
3.29083e-007	-2.40853e-005	0	
4.97223e-007	-2.41178e-005	0	
6.70241e-007	-2.41653e-005	0	
8.50638e-007	-2.42306e-005	0	
1.04133e-006	-2.43179e-005	0	
1.24418e-006	-2.4435e-005	0	
1.4603e-006	-2.45923e-005	0	
1.68928e-006	-2.48002e-005	0	
1.94338e-006	-2.50733e-005	0	
2.32148e-006	-2.53486e-005	0	
2.84258e-006	-2.58368e-005	0	
3.36556e-006	-2.70526e-005	0	
3.74923e-006	-2.6429e-005	0	
4.43699e-006	-2.59995e-005	0	
5.34314e-006	-2.58951e-005	0	
6.94973e-006	-2.59911e-005	0	
1.0233e-005	-2.62184e-005	0	
1.49656e-005	-2.71016e-005	0	
1.96765e-005	-2.80879e-005	0	
-2.20695e-005	-3.29322e-005	0	
-1.71497e-005	-3.19512e-005	0	
-1.22383e-005	-3.10486e-005	0	
-7.13407e-006	-2.88649e-005	0	
-6.49456e-006	-2.93614e-005	0	
-5.50302e-006	-2.95063e-005	0	
-4.77668e-006	-2.95556e-005	0	
-3.85706e-006	-2.97737e-005	0	
-3.15557e-006	-3.03058e-005	0	
-2.80356e-006	-2.95472e-005	0	
-2.36874e-006	-2.9221e-005	0	
-2.06278e-006	-2.89656e-005	0	
-1.77549e-006	-2.87312e-005	0	
-1.49715e-006	-2.85773e-005	0	
-1.24538e-006	-2.84618e-005	0	
-1.01404e-006	-2.83742e-005	0	
-7.97678e-007	-2.83075e-005	0	
-5.91256e-007	-2.82584e-005	0	
-3.91066e-007	-2.82249e-005	0	
-1.94629e-007	-2.82056e-005	0	
-1.41302e-013	-2.81993e-005	0	
1.94629e-007	-2.82056e-005	0	
3.91066e-007	-2.82249e-005	0	
5.91256e-007	-2.82584e-005	0	
7.97679e-007	-2.83075e-005	0	
1.01404e-006	-2.83742e-005	0	
1.24538e-006	-2.84618e-005	0	
1.49715e-006	-2.85773e-005	0	
1.77549e-006	-2.87312e-005	0	
2.06278e-006	-2.89656e-005	0	
2.36874e-006	-2.9221e-005	0	
2.80356e-006	-2.95472e-005	0	
3.15557e-006	-3.03058e-005	0	
3.85706e-006	-2.97737e-005	0	
4.77668e-006	-2.95556e-005	0	
5.50302e-006	-2.95063e-005	0	
6.49456e-006	-2.93614e-005	0	
7.13407e-006	-2.88649e-005	0	
1.22383e-005	-3.10486e-005	0	
1.71497e-005	-3.19512e-005	0	
2.20695e-005	-3.29322e-005	0	
-2.44436e-005	-3.79549e-005	0	
-1.93512e-005	-3.69765e-005	0	
-1.4259e-005	-3.60694e-005	0	
-1.02765e-005	-3.44214e-005	0	
-6.95106e-006	-3.2045e-005	0	
-6.55465e-006	-3.26424e-005	0	
-5.82135e-006	-3.30107e-005	0	
-4.88864e-006	-3.31333e-005	0	
-3.45627e-006	-3.33274e-005	0	
-2.68185e-006	-3.39729e-005	0	
-2.8098e-006	-3.32931e-005	0	
-2.44129e-006	-3.3021e-005	0	
-2.06977e-006	-3.28563e-005	0	
-1.73567e-006	-3.27237e-005	0	
-1.43848e-006	-3.26233e-005	0	
-1.17183e-006	-3.25398e-005	0	
-9.22238e-007	-3.24744e-005	0	
-6.834e-007	-3.24264e-005	0	
-4.51681e-007	-3.23942e-005	0	
-2.24635e-007	-3.23759e-005	0	
-2.02546e-013	-3.237e-005	0	
2.24635e-007	-3.23759e-005	0	
4.51681e-007	-3.23942e-005	0	
6.834e-007	-3.24264e-005	0	
9.22238e-007	-3.24744e-005	0	
1.17183e-006	-3.25398e-005	0	
1.43848e-006	-3.26233e-005	0	
1.73567e-006	-3.27237e-005	0	
2.06977e-006	-3.28563e-005	0	
2.44129e-006	-3.3021e-005	0	
2.8098e-006	-3.32931e-005	0	
2.68185e-006	-3.39729e-005	0	
3.45627e-006	-3.33274e-005	0	
4.88864e-006	-3.31333e-005	0	
5.82135e-006	-3.30107e-005	0	
6.55465e-006	-3.26424e-005	0	
6.95106e-006	-3.2045e-005	0	
1.02765e-005	-3.44214e-005	0	
1.4259e-005	-3.60694e-005	0	
1.93512e-005	-3.69765e-005	0	
2.44436e-005	-3.79549e-005	0	
-2.68012e-005	-4.31467e-005	0	
-2.15493e-005	-4.21722e-005	0	
-1.62987e-005	-4.1262e-005	0	
-1.28257e-005	-3.97265e-005	0	
-9.64088e-006	-3.79509e-005	0	
-7.24519e-006	-3.55909e-005	0	
-7.11283e-006	-3.63207e-005	0	
-5.81858e-006	-3.68908e-005	0	
-4.52064e-006	-3.73067e-005	0	
-2.98887e-006	-3.7473e-005	0	
-3.20348e-006	-3.71555e-005	0	
-2.77961e-006	-3.70808e-005	0	
-2.30433e-006	-3.70023e-005	0	
-1.94126e-006	-3.68924e-005	0	
-1.61787e-006	-3.68024e-005	0	
-1.32138e-006	-3.67249e-005	0	
-1.0415e-006	-3.66629e-005	0	
-7.70999e-007	-3.66196e-005	0	
-5.08742e-007	-3.65919e-005	0	
-2.52708e-007	-3.65767e-005	0	
-2.37576e-013	-3.65719e-005	0	
2.52707e-007	-3.65767e-005	0	
5.08742e-007	-3.65919e-005	0	
7.71e-007	-3.66196e-005	0	
1.0415e-006	-3.66629e-005	0	
1.32138e-006	-3.67249e-005	0	
1.61787e-006	-3.68024e-005	0	
1.94126e-006	-3.68924e-005	0	
2.30433e-006	-3.70023e-005	0	
2.77961e-006	-3.70808e-005	0	
3.20348e-006	-3.71555e-005	0	
2.98887e-006	-3.7473e-005	0	
4.52064e-006	-3.73067e-005	0	
5.81858e-006	-3.68908e-005	0	
7.11283e-006	-3.63207e-005	0	
7.24519e-006	-3.55909e-005	0	
9.64088e-006	-3.79509e-005	0	
1.28257e-005	-3.97265e-005	0	
1.62987e-005	-4.1262e-005	0	
2.15493e-005	-4.21722e-005	0	
2.68012e-005	-4.31467e-005	0	
-2.91419e-005	-4.84903e-005	0	
-2.37474e-005	-4.75196e-005	0	
-1.83541e-005	-4.66058e-005	0	
-1.51232e-005	-4.50234e-005	0	
-1.20716e-005	-4.33702e-005	0	
-9.45477e-006	-4.18487e-005	0	
-8.77803e-006	-4.09985e-005	0	
-6.76189e-006	-4.09408e-005	0	
-5.50803e-006	-4.11402e-005	0	
-4.22363e-006	-4.15872e-005	0	
-3.59859e-006	-4.22123e-005	0	
-3.07819e-006	-4.13071e-005	0	
-2.54416e-006	-4.11431e-005	0	
-2.10908e-006	-4.11003e-005	0	
-1.7824e-006	-4.09984e-005	0	
-1.4645e-006	-4.09216e-005	0	
-1.15191e-006	-4.08694e-005	0	
-8.50058e-007	-4.08371e-005	0	
-5.59371e-007	-4.08181e-005	0	
-2.77456e-007	-4.08079e-005	0	
-1.97e-013	-4.08047e-005	0	
2.77456e-007	-4.08079e-005	0	
5.59371e-007	-4.08181e-005	0	
8.50058e-007	-4.08371e-005	0	
1.15191e-006	-4.08694e-005	0	
1.4645e-006	-4.09216e-005	0	
1.7824e-006	-4.09984e-005	0	
2.10908e-006	-4.11003e-005	0	
2.54416e-006	-4.11431e-005	0	
3.07819e-006	-4.13071e-005	0	
3.59859e-006	-4.22123e-005	0	
4.22363e-006	-4.15872e-005	0	
5.50803e-006	-4.11402e-005	0	
6.76189e-006	-4.09408e-005	0	
8.77803e-006	-4.09985e-005	0	
9.45477e-006	-4.18487e-005	0	
1.20716e-005	-4.33702e-005	0	
1.51232e-005	-4.50234e-005	0	
1.83541e-005	-4.66058e-005	0	
2.37474e-005	-4.75196e-005	0	
2.91419e-005	-4.84903e-005	0	
-3.14646e-005	-5.39689e-005	0	
-2.59449e-005	-5.30022e-005	0	
-2.04267e-005	-5.20848e-005	0	
-1.73695e-005	-5.0441e-005	0	
-1.44142e-005	-4.86847e-005	0	
-1.16715e-005	-4.67565e-005	0	
-8.92847e-006	-4.42681e-005	0	
-7.80163e-006	-4.47452e-005	0	
-6.46873e-006	-4.49858e-005	0	
-5.36413e-006	-4.50525e-005	0	
-4.11006e-006	-4.52765e-005	0	
-3.08457e-006	-4.58171e-005	0	
-2.71575e-006	-4.53464e-005	0	
-2.28465e-006	-4.52646e-005	0	
-1.94624e-006	-4.51952e-005	0	
-1.59728e-006	-4.51194e-005	0	
-1.24519e-006	-4.50943e-005	0	
-9.1458e-007	-4.50814e-005	0	
-6.00694e-007	-4.50744e-005	0	
-2.9779e-007	-4.50702e-005	0	
-8.17648e-014	-4.50686e-005	0	
2.9779e-007	-4.50702e-005	0	
6.00694e-007	-4.50744e-005	0	
9.1458e-007	-4.50814e-005	0	
1.24519e-006	-4.50943e-005	0	
1.59728e-006	-4.51194e-005	0	
1.94624e-006	-4.51952e-005	0	
2.28465e-006	-4.52646e-005	0	
2.71575e-006	-4.53464e-005	0	
3.08457e-006	-4.58171e-005	0	
4.11006e-006	-4.52765e-005	0	
5.36413e-006	-4.50525e-005	0	
6.46873e-006	-4.49858e-005	0	
7.80163e-006	-4.47452e-005	0	
8.92847e-006	-4.42681e-005	0	
1.16715e-005	-4.67565e-005	0	
1.44142e-005	-4.86847e-005	0	
1.73695e-005	-5.0441e-005	0	
2.04267e-005	-5.20848e-005	0	
2.59449e-005	-5.30022e-005	0	
3.14646e-005	-5.39689e-005	0	
-3.37685e-005	-5.95647e-005	0	
-2.81419e-005	-5.86023e-005	0	
-2.2517e-005	-5.76809e-005	0	
-1.95968e-005	-5.59733e-005	0	
-1.67423e-005	-5.41373e-005	0	
-1.39855e-005	-5.2327e-005	0	
-1.11485e-005	-5.04134e-005	0	
-8.28438e-006	-4.78666e-005	0	
-7.49392e-006	-4.84626e-005	0	
-6.39772e-006	-4.88258e-005	0	
-5.13088e-006	-4.89391e-005	0	
-3.41317e-006	-4.9152e-005	0	
-2.20799e-006	-4.97535e-005	0	
-2.4841e-006	-4.93793e-005	0	
-2.10198e-006	-4.93203e-005	0	
-1.69368e-006	-4.93331e-005	0	
-1.31085e-006	-4.93453e-005	0	
-9.58994e-007	-4.93591e-005	0	
-6.31359e-007	-4.93632e-005	0	
-3.13802e-007	-4.93636e-005	0	
3.92376e-014	-4.93633e-005	0	
3.13802e-007	-4.93636e-005	0	
6.31359e-007	-4.93632e-005	0	
9.58995e-007	-4.93591e-005	0	
1.31085e-006	-4.93453e-005	0	
1.69368e-006	-4.93331e-005	0	
2.10198e-006	-4.93203e-005	0	
2.4841e-006	-4.93793e-005	0	
2.20799e-006	-4.97535e-005	0	
3.41317e-006	-4.9152e-005	0	
5.13088e-006	-4.89391e-005	0	
6.39772e-006	-4.88258e-005	0	
7.49392e-006	-4.84626e-005	0	
8.28438e-006	-4.78666e-005	0	
1.11485e-005	-5.04134e-005	0	
1.39855e-005	-5.2327e-005	0	
1.67423e-005	-5.41373e-005	0	
1.95968e-005	-5.59733e-005	0	
2.2517e-005	-5.76809e-005	0	
2.81419e-005	-5.86023e-005	0	
3.37685e-005	-5.95647e-005	0	
-3.60524e-005	-6.5259e-005	0	
-3.03385e-005	-6.43011e-005	0	
-2.46263e-005	-6.33756e-005	0	
-2.18058e-005	-6.1633e-005	0	
-1.89996e-005	-5.98226e-005	0	
-1.62295e-005	-5.79617e-005	0	
-1.34439e-005	-5.61703e-005	0	
-1.06257e-005	-5.4282e-005	0	
-8.16989e-006	-5.17384e-005	0	
-7.67613e-006	-5.24566e-005	0	
-6.05698e-006	-5.30118e-005	0	
-4.44141e-006	-5.33882e-005	0	
-2.44928e-006	-5.3491e-005	0	
-2.65815e-006	-5.33884e-005	0	
-2.21707e-006	-5.35017e-005	0	
-1.72132e-006	-5.3605e-005	0	
-1.33721e-006	-5.36453e-005	0	
-9.86483e-007	-5.36736e-005	0	
-6.53623e-007	-5.36854e-005	0	
-3.27052e-007	-5.36873e-005	0	
8.33283e-014	-5.36875e-005	0	
3.27052e-007	-5.36873e-005	0	
6.53623e-007	-5.36854e-005	0	
9.86483e-007	-5.36736e-005	0	
1.33721e-006	-5.36453e-005	0	
1.72132e-006	-5.3605e-005	0	
2.21707e-006	-5.35017e-005	0	
2.65815e-006	-5.33884e-005	0	
2.44928e-006	-5.3491e-005	0	
4.44141e-006	-5.33882e-005	0	
6.05698e-006	-5.30118e-005	0	
7.67613e-006	-5.24566e-005	0	
8.16989e-006	-5.17384e-005	0	
1.06257e-005	-5.4282e-005	0	
1.34439e-005	-5.61703e-005	0	
1.62295e-005	-5.79617e-005	0	
1.89996e-005	-5.98226e-005	0	
2.18058e-005	-6.1633e-005	0	
2.46263e-005	-6.33756e-005	0	
3.03385e-005	-6.43011e-005	0	
3.60524e-005	-6.5259e-005	0	
-3.83153e-005	-7.10319e-005	0	
-3.25345e-005	-7.00788e-005	0	
-2.67555e-005	-6.91489e-005	0	
-2.39994e-005	-6.73824e-005	0	
-2.12286e-005	-6.55669e-005	0	
-1.84613e-005	-6.3727e-005	0	
-1.56834e-005	-6.18665e-005	0	
-1.28773e-005	-6.00636e-005	0	
-1.02459e-005	-5.84213e-005	0	
-9.31812e-006	-5.74157e-005	0	
-6.99621e-006	-5.73673e-005	0	
-5.40403e-006	-5.75883e-005	0	
-3.76833e-006	-5.80501e-005	0	
-2.87199e-006	-5.86875e-005	0	
-2.30553e-006	-5.79034e-005	0	
-1.75996e-006	-5.79064e-005	0	
-1.32377e-006	-5.80114e-005	0	
-1.00183e-006	-5.80258e-005	0	
-6.74542e-007	-5.80349e-005	0	
-3.38843e-007	-5.80403e-005	0	
3.13356e-014	-5.8042e-005	0	
3.38843e-007	-5.80403e-005	0	
6.74542e-007	-5.80349e-005	0	
1.00183e-006	-5.80258e-005	0	
1.32377e-006	-5.80114e-005	0	
1.75996e-006	-5.79064e-005	0	
2.30553e-006	-5.79034e-005	0	
2.87199e-006	-5.86875e-005	0	
3.76833e-006	-5.80501e-005	0	
5.40403e-006	-5.75883e-005	0	
6.99621e-006	-5.73673e-005	0	
9.31812e-006	-5.74157e-005	0	
1.02459e-005	-5.84213e-005	0	
1.28773e-005	-6.00636e-005	0	
1.56834e-005	-6.18665e-005	0	
1.84613e-005	-6.3727e-005	0	
2.12286e-005	-6.55669e-005	0	
2.39994e-005	-6.73824e-005	0	
2.67555e-005	-6.91489e-005	0	
3.25345e-005	-7.00788e-005	0	
3.83153e-005	-7.10319e-005	0	
-4.05558e-005	-7.68624e-005	0	
-3.473e-005	-7.59143e-005	0	
-2.8906e-005	-7.49798e-005	0	
-2.61939e-005	-7.31831e-005	0	
-2.34606e-005	-7.1345e-005	0	
-2.07076e-005	-6.94803e-005	0	
-1.79407e-005	-6.75864e-005	0	
-1.51528e-005	-6.56807e-005	0	
-1.23942e-005	-6.36444e-005	0	
-9.47867e-006	-6.10284e-005	0	
-8.02507e-006	-6.1509e-005	0	
-6.35186e-006	-6.17519e-005	0	
-4.93046e-006	-6.1823e-005	0	
-3.40506e-006	-6.20669e-005	0	
-2.10555e-006	-6.26155e-005	0	
-1.71918e-006	-6.22836e-005	0	
-1.32905e-006	-6.2351e-005	0	
-1.01928e-006	-6.23981e-005	0	
-6.93637e-007	-6.24043e-005	0	
-3.46731e-007	-6.2426e-005	0	
-5.02072e-014	-6.24334e-005	0	
3.46731e-007	-6.2426e-005	0	
6.93637e-007	-6.24043e-005	0	
1.01928e-006	-6.23981e-005	0	
1.32905e-006	-6.2351e-005	0	
1.71918e-006	-6.22836e-005	0	
2.10555e-006	-6.26155e-005	0	
3.40506e-006	-6.20669e-005	0	
4.93046e-006	-6.1823e-005	0	
6.35186e-006	-6.17519e-005	0	
8.02507e-006	-6.1509e-005	0	
9.47867e-006	-6.10284e-005	0	
1.23942e-005	-6.36444e-005	0	
1.51528e-005	-6.56807e-005	0	
1.79407e-005	-6.75864e-005	0	
2.07076e-005	-6.94803e-005	0	
2.34606e-005	-7.1345e-005	0	
2.61939e-005	-7.31831e-005	0	
2.8906e-005	-7.49798e-005	0	
3.473e-005	-7.59143e-005	0	
4.05558e-005	-7.68624e-005	0	
-4.27725e-005	-8.27279e-005	0	
-3.6925e-005	-8.17852e-005	0	
-3.10792e-005	-8.08457e-005	0	