# vtk DataFile Version 4.1
vtk output
ASCII
DATASET UNSTRUCTURED_GRID

POINTS	7401	float
0	0	0	
0	1	0	
0	2	0	
0	3	0	
0	4	0	
0	5	0	
0	6	0	
0	7	0	
0	8	0	
0	9	0	
0	10	0	
0	11	0	
0	12	0	
0	13	0	
0	14	0	
0	15	0	
0	16	0	
0	17	0	
0	18	0	
0	19	0	
0	20	0	
0	21	0	
0	22	0	
0	23	0	
0	24	0	
0	25	0	
0	26	0	
0	27	0	
0	28	0	
0	29	0	
0	30	0	
0	31	0	
0	32	0	
0	33	0	
0	34	0	
0	35	0	
0	36	0	
0	37	0	
0	38	0	
0	39	0	
0	40	0	
1	0	0	
1	1	0	
1	2	0	
1	3	0	
1	4	0	
1	5	0	
1	6	0	
1	7	0	
1	8	0	
1	9	0	
1	10	0	
1	11	0	
1	12	0	
1	13	0	
1	14	0	
1	15	0	
1	16	0	
1	17	0	
1	18	0	
1	19	0	
1	20	0	
1	21	0	
1	22	0	
1	23	0	
1	24	0	
1	25	0	
1	26	0	
1	27	0	
1	28	0	
1	29	0	
1	30	0	
1	31	0	
1	32	0	
1	33	0	
1	34	0	
1	35	0	
1	36	0	
1	37	0	
1	38	0	
1	39	0	
1	40	0	
2	0	0	
2	1	0	
2	2	0	
2	3	0	
2	4	0	
2	5	0	
2	6	0	
2	7	0	
2	8	0	
2	9	0	
2	10	0	
2	11	0	
2	12	0	
2	13	0	
2	14	0	
2	15	0	
2	16	0	
2	17	0	
2	18	0	
2	19	0	
2	20	0	
2	21	0	
2	22	0	
2	23	0	
2	24	0	
2	25	0	
2	26	0	
2	27	0	
2	28	0	
2	29	0	
2	30	0	
2	31	0	
2	32	0	
2	33	0	
2	34	0	
2	35	0	
2	36	0	
2	37	0	
2	38	0	
2	39	0	
2	40	0	
3	0	0	
3	1	0	
3	2	0	
3	3	0	
3	4	0	
3	5	0	
3	6	0	
3	7	0	
3	8	0	
3	9	0	
3	10	0	
3	11	0	
3	12	0	
3	13	0	
3	14	0	
3	15	0	
3	16	0	
3	17	0	
3	18	0	
3	19	0	
3	20	0	
3	21	0	
3	22	0	
3	23	0	
3	24	0	
3	25	0	
3	26	0	
3	27	0	
3	28	0	
3	29	0	
3	30	0	
3	31	0	
3	32	0	
3	33	0	
3	34	0	
3	35	0	
3	36	0	
3	37	0	
3	38	0	
3	39	0	
3	40	0	
4	0	0	
4	1	0	
4	2	0	
4	3	0	
4	4	0	
4	5	0	
4	6	0	
4	7	0	
4	8	0	
4	9	0	
4	10	0	
4	11	0	
4	12	0	
4	13	0	
4	14	0	
4	15	0	
4	16	0	
4	17	0	
4	18	0	
4	19	0	
4	20	0	
4	21	0	
4	22	0	
4	23	0	
4	24	0	
4	25	0	
4	26	0	
4	27	0	
4	28	0	
4	29	0	
4	30	0	
4	31	0	
4	32	0	
4	33	0	
4	34	0	
4	35	0	
4	36	0	
4	37	0	
4	38	0	
4	39	0	
4	40	0	
5	0	0	
5	1	0	
5	2	0	
5	3	0	
5	4	0	
5	5	0	
5	6	0	
5	7	0	
5	8	0	
5	9	0	
5	10	0	
5	11	0	
5	12	0	
5	13	0	
5	14	0	
5	15	0	
5	16	0	
5	17	0	
5	18	0	
5	19	0	
5	20	0	
5	21	0	
5	22	0	
5	23	0	
5	24	0	
5	25	0	
5	26	0	
5	27	0	
5	28	0	
5	29	0	
5	30	0	
5	31	0	
5	32	0	
5	33	0	
5	34	0	
5	35	0	
5	36	0	
5	37	0	
5	38	0	
5	39	0	
5	40	0	
6	0	0	
6	1	0	
6	2	0	
6	3	0	
6	4	0	
6	5	0	
6	6	0	
6	7	0	
6	8	0	
6	9	0	
6	10	0	
6	11	0	
6	12	0	
6	13	0	
6	14	0	
6	15	0	
6	16	0	
6	17	0	
6	18	0	
6	19	0	
6	20	0	
6	21	0	
6	22	0	
6	23	0	
6	24	0	
6	25	0	
6	26	0	
6	27	0	
6	28	0	
6	29	0	
6	30	0	
6	31	0	
6	32	0	
6	33	0	
6	34	0	
6	35	0	
6	36	0	
6	37	0	
6	38	0	
6	39	0	
6	40	0	
7	0	0	
7	1	0	
7	2	0	
7	3	0	
7	4	0	
7	5	0	
7	6	0	
7	7	0	
7	8	0	
7	9	0	
7	10	0	
7	11	0	
7	12	0	
7	13	0	
7	14	0	
7	15	0	
7	16	0	
7	17	0	
7	18	0	
7	19	0	
7	20	0	
7	21	0	
7	22	0	
7	23	0	
7	24	0	
7	25	0	
7	26	0	
7	27	0	
7	28	0	
7	29	0	
7	30	0	
7	31	0	
7	32	0	
7	33	0	
7	34	0	
7	35	0	
7	36	0	
7	37	0	
7	38	0	
7	39	0	
7	40	0	
8	0	0	
8	1	0	
8	2	0	
8	3	0	
8	4	0	
8	5	0	
8	6	0	
8	7	0	
8	8	0	
8	9	0	
8	10	0	
8	11	0	
8	12	0	
8	13	0	
8	14	0	
8	15	0	
8	16	0	
8	17	0	
8	18	0	
8	19	0	
8	20	0	
8	21	0	
8	22	0	
8	23	0	
8	24	0	
8	25	0	
8	26	0	
8	27	0	
8	28	0	
8	29	0	
8	30	0	
8	31	0	
8	32	0	
8	33	0	
8	34	0	
8	35	0	
8	36	0	
8	37	0	
8	38	0	
8	39	0	
8	40	0	
9	0	0	
9	1	0	
9	2	0	
9	3	0	
9	4	0	
9	5	0	
9	6	0	
9	7	0	
9	8	0	
9	9	0	
9	10	0	
9	11	0	
9	12	0	
9	13	0	
9	14	0	
9	15	0	
9	16	0	
9	17	0	
9	18	0	
9	19	0	
9	20	0	
9	21	0	
9	22	0	
9	23	0	
9	24	0	
9	25	0	
9	26	0	
9	27	0	
9	28	0	
9	29	0	
9	30	0	
9	31	0	
9	32	0	
9	33	0	
9	34	0	
9	35	0	
9	36	0	
9	37	0	
9	38	0	
9	39	0	
9	40	0	
10	0	0	
10	1	0	
10	2	0	
10	3	0	
10	4	0	
10	5	0	
10	6	0	
10	7	0	
10	8	0	
10	9	0	
10	10	0	
10	11	0	
10	12	0	
10	13	0	
10	14	0	
10	15	0	
10	16	0	
10	17	0	
10	18	0	
10	19	0	
10	20	0	
10	21	0	
10	22	0	
10	23	0	
10	24	0	
10	25	0	
10	26	0	
10	27	0	
10	28	0	
10	29	0	
10	30	0	
10	31	0	
10	32	0	
10	33	0	
10	34	0	
10	35	0	
10	36	0	
10	37	0	
10	38	0	
10	39	0	
10	40	0	
11	0	0	
11	1	0	
11	2	0	
11	3	0	
11	4	0	
11	5	0	
11	6	0	
11	7	0	
11	8	0	
11	9	0	
11	10	0	
11	11	0	
11	12	0	
11	13	0	
11	14	0	
11	15	0	
11	16	0	
11	17	0	
11	18	0	
11	19	0	
11	20	0	
11	21	0	
11	22	0	
11	23	0	
11	24	0	
11	25	0	
11	26	0	
11	27	0	
11	28	0	
11	29	0	
11	30	0	
11	31	0	
11	32	0	
11	33	0	
11	34	0	
11	35	0	
11	36	0	
11	37	0	
11	38	0	
11	39	0	
11	40	0	
12	0	0	
12	1	0	
12	2	0	
12	3	0	
12	4	0	
12	5	0	
12	6	0	
12	7	0	
12	8	0	
12	9	0	
12	10	0	
12	11	0	
12	12	0	
12	13	0	
12	14	0	
12	15	0	
12	16	0	
12	17	0	
12	18	0	
12	19	0	
12	20	0	
12	21	0	
12	22	0	
12	23	0	
12	24	0	
12	25	0	
12	26	0	
12	27	0	
12	28	0	
12	29	0	
12	30	0	
12	31	0	
12	32	0	
12	33	0	
12	34	0	
12	35	0	
12	36	0	
12	37	0	
12	38	0	
12	39	0	
12	40	0	
13	0	0	
13	1	0	
13	2	0	
13	3	0	
13	4	0	
13	5	0	
13	6	0	
13	7	0	
13	8	0	
13	9	0	
13	10	0	
13	11	0	
13	12	0	
13	13	0	
13	14	0	
13	15	0	
13	16	0	
13	17	0	
13	18	0	
13	19	0	
13	20	0	
13	21	0	
13	22	0	
13	23	0	
13	24	0	
13	25	0	
13	26	0	
13	27	0	
13	28	0	
13	29	0	
13	30	0	
13	31	0	
13	32	0	
13	33	0	
13	34	0	
13	35	0	
13	36	0	
13	37	0	
13	38	0	
13	39	0	
13	40	0	
14	0	0	
14	1	0	
14	2	0	
14	3	0	
14	4	0	
14	5	0	
14	6	0	
14	7	0	
14	8	0	
14	9	0	
14	10	0	
14	11	0	
14	12	0	
14	13	0	
14	14	0	
14	15	0	
14	16	0	
14	17	0	
14	18	0	
14	19	0	
14	20	0	
14	21	0	
14	22	0	
14	23	0	
14	24	0	
14	25	0	
14	26	0	
14	27	0	
14	28	0	
14	29	0	
14	30	0	
14	31	0	
14	32	0	
14	33	0	
14	34	0	
14	35	0	
14	36	0	
14	37	0	
14	38	0	
14	39	0	
14	40	0	
15	0	0	
15	1	0	
15	2	0	
15	3	0	
15	4	0	
15	5	0	
15	6	0	
15	7	0	
15	8	0	
15	9	0	
15	10	0	
15	11	0	
15	12	0	
15	13	0	
15	14	0	
15	15	0	
15	16	0	
15	17	0	
15	18	0	
15	19	0	
15	20	0	
15	21	0	
15	22	0	
15	23	0	
15	24	0	
15	25	0	
15	26	0	
15	27	0	
15	28	0	
15	29	0	
15	30	0	
15	31	0	
15	32	0	
15	33	0	
15	34	0	
15	35	0	
15	36	0	
15	37	0	
15	38	0	
15	39	0	
15	40	0	
16	0	0	
16	1	0	
16	2	0	
16	3	0	
16	4	0	
16	5	0	
16	6	0	
16	7	0	
16	8	0	
16	9	0	
16	10	0	
16	11	0	
16	12	0	
16	13	0	
16	14	0	
16	15	0	
16	16	0	
16	17	0	
16	18	0	
16	19	0	
16	20	0	
16	21	0	
16	22	0	
16	23	0	
16	24	0	
16	25	0	
16	26	0	
16	27	0	
16	28	0	
16	29	0	
16	30	0	
16	31	0	
16	32	0	
16	33	0	
16	34	0	
16	35	0	
16	36	0	
16	37	0	
16	38	0	
16	39	0	
16	40	0	
17	0	0	
17	1	0	
17	2	0	
17	3	0	
17	4	0	
17	5	0	
17	6	0	
17	7	0	
17	8	0	
17	9	0	
17	10	0	
17	11	0	
17	12	0	
17	13	0	
17	14	0	
17	15	0	
17	16	0	
17	17	0	
17	18	0	
17	19	0	
17	20	0	
17	21	0	
17	22	0	
17	23	0	
17	24	0	
17	25	0	
17	26	0	
17	27	0	
17	28	0	
17	29	0	
17	30	0	
17	31	0	
17	32	0	
17	33	0	
17	34	0	
17	35	0	
17	36	0	
17	37	0	
17	38	0	
17	39	0	
17	40	0	
18	0	0	
18	1	0	
18	2	0	
18	3	0	
18	4	0	
18	5	0	
18	6	0	
18	7	0	
18	8	0	
18	9	0	
18	10	0	
18	11	0	
18	12	0	
18	13	0	
18	14	0	
18	15	0	
18	16	0	
18	17	0	
18	18	0	
18	19	0	
18	20	0	
18	21	0	
18	22	0	
18	23	0	
18	24	0	
18	25	0	
18	26	0	
18	27	0	
18	28	0	
18	29	0	
18	30	0	
18	31	0	
18	32	0	
18	33	0	
18	34	0	
18	35	0	
18	36	0	
18	37	0	
18	38	0	
18	39	0	
18	40	0	
19	0	0	
19	1	0	
19	2	0	
19	3	0	
19	4	0	
19	5	0	
19	6	0	
19	7	0	
19	8	0	
19	9	0	
19	10	0	
19	11	0	
19	12	0	
19	13	0	
19	14	0	
19	15	0	
19	16	0	
19	17	0	
19	18	0	
19	19	0	
19	20	0	
19	21	0	
19	22	0	
19	23	0	
19	24	0	
19	25	0	
19	26	0	
19	27	0	
19	28	0	
19	29	0	
19	30	0	
19	31	0	
19	32	0	
19	33	0	
19	34	0	
19	35	0	
19	36	0	
19	37	0	
19	38	0	
19	39	0	
19	40	0	
20	0	0	
20	1	0	
20	2	0	
20	3	0	
20	4	0	
20	5	0	
20	6	0	
20	7	0	
20	8	0	
20	9	0	
20	10	0	
20	11	0	
20	12	0	
20	13	0	
20	14	0	
20	15	0	
20	16	0	
20	17	0	
20	18	0	
20	19	0	
20	20	0	
20	21	0	
20	22	0	
20	23	0	
20	24	0	
20	25	0	
20	26	0	
20	27	0	
20	28	0	
20	29	0	
20	30	0	
20	31	0	
20	32	0	
20	33	0	
20	34	0	
20	35	0	
20	36	0	
20	37	0	
20	38	0	
20	39	0	
20	40	0	
21	0	0	
21	1	0	
21	2	0	
21	3	0	
21	4	0	
21	5	0	
21	6	0	
21	7	0	
21	8	0	
21	9	0	
21	10	0	
21	11	0	
21	12	0	
21	13	0	
21	14	0	
21	15	0	
21	16	0	
21	17	0	
21	18	0	
21	19	0	
21	20	0	
21	21	0	
21	22	0	
21	23	0	
21	24	0	
21	25	0	
21	26	0	
21	27	0	
21	28	0	
21	29	0	
21	30	0	
21	31	0	
21	32	0	
21	33	0	
21	34	0	
21	35	0	
21	36	0	
21	37	0	
21	38	0	
21	39	0	
21	40	0	
22	0	0	
22	1	0	
22	2	0	
22	3	0	
22	4	0	
22	5	0	
22	6	0	
22	7	0	
22	8	0	
22	9	0	
22	10	0	
22	11	0	
22	12	0	
22	13	0	
22	14	0	
22	15	0	
22	16	0	
22	17	0	
22	18	0	
22	19	0	
22	20	0	
22	21	0	
22	22	0	
22	23	0	
22	24	0	
22	25	0	
22	26	0	
22	27	0	
22	28	0	
22	29	0	
22	30	0	
22	31	0	
22	32	0	
22	33	0	
22	34	0	
22	35	0	
22	36	0	
22	37	0	
22	38	0	
22	39	0	
22	40	0	
23	0	0	
23	1	0	
23	2	0	
23	3	0	
23	4	0	
23	5	0	
23	6	0	
23	7	0	
23	8	0	
23	9	0	
23	10	0	
23	11	0	
23	12	0	
23	13	0	
23	14	0	
23	15	0	
23	16	0	
23	17	0	
23	18	0	
23	19	0	
23	20	0	
23	21	0	
23	22	0	
23	23	0	
23	24	0	
23	25	0	
23	26	0	
23	27	0	
23	28	0	
23	29	0	
23	30	0	
23	31	0	
23	32	0	
23	33	0	
23	34	0	
23	35	0	
23	36	0	
23	37	0	
23	38	0	
23	39	0	
23	40	0	
24	0	0	
24	1	0	
24	2	0	
24	3	0	
24	4	0	
24	5	0	
24	6	0	
24	7	0	
24	8	0	
24	9	0	
24	10	0	
24	11	0	
24	12	0	
24	13	0	
24	14	0	
24	15	0	
24	16	0	
24	17	0	
24	18	0	
24	19	0	
24	20	0	
24	21	0	
24	22	0	
24	23	0	
24	24	0	
24	25	0	
24	26	0	
24	27	0	
24	28	0	
24	29	0	
24	30	0	
24	31	0	
24	32	0	
24	33	0	
24	34	0	
24	35	0	
24	36	0	
24	37	0	
24	38	0	
24	39	0	
24	40	0	
25	0	0	
25	1	0	
25	2	0	
25	3	0	
25	4	0	
25	5	0	
25	6	0	
25	7	0	
25	8	0	
25	9	0	
25	10	0	
25	11	0	
25	12	0	
25	13	0	
25	14	0	
25	15	0	
25	16	0	
25	17	0	
25	18	0	
25	19	0	
25	20	0	
25	21	0	
25	22	0	
25	23	0	
25	24	0	
25	25	0	
25	26	0	
25	27	0	
25	28	0	
25	29	0	
25	30	0	
25	31	0	
25	32	0	
25	33	0	
25	34	0	
25	35	0	
25	36	0	
25	37	0	
25	38	0	
25	39	0	
25	40	0	
26	0	0	
26	1	0	
26	2	0	
26	3	0	
26	4	0	
26	5	0	
26	6	0	
26	7	0	
26	8	0	
26	9	0	
26	10	0	
26	11	0	
26	12	0	
26	13	0	
26	14	0	
26	15	0	
26	16	0	
26	17	0	
26	18	0	
26	19	0	
26	20	0	
26	21	0	
26	22	0	
26	23	0	
26	24	0	
26	25	0	
26	26	0	
26	27	0	
26	28	0	
26	29	0	
26	30	0	
26	31	0	
26	32	0	
26	33	0	
26	34	0	
26	35	0	
26	36	0	
26	37	0	
26	38	0	
26	39	0	
26	40	0	
27	0	0	
27	1	0	
27	2	0	
27	3	0	
27	4	0	
27	5	0	
27	6	0	
27	7	0	
27	8	0	
27	9	0	
27	10	0	
27	11	0	
27	12	0	
27	13	0	
27	14	0	
27	15	0	
27	16	0	
27	17	0	
27	18	0	
27	19	0	
27	20	0	
27	21	0	
27	22	0	
27	23	0	
27	24	0	
27	25	0	
27	26	0	
27	27	0	
27	28	0	
27	29	0	
27	30	0	
27	31	0	
27	32	0	
27	33	0	
27	34	0	
27	35	0	
27	36	0	
27	37	0	
27	38	0	
27	39	0	
27	40	0	
28	0	0	
28	1	0	
28	2	0	
28	3	0	
28	4	0	
28	5	0	
28	6	0	
28	7	0	
28	8	0	
28	9	0	
28	10	0	
28	11	0	
28	12	0	
28	13	0	
28	14	0	
28	15	0	
28	16	0	
28	17	0	
28	18	0	
28	19	0	
28	20	0	
28	21	0	
28	22	0	
28	23	0	
28	24	0	
28	25	0	
28	26	0	
28	27	0	
28	28	0	
28	29	0	
28	30	0	
[...]
POINT_DATA	7401
VECTORS d float
-1.09219e-016	-6.13646e-017	0	
-4.04748e-017	-1.94466e-017	0	
-3.32764e-017	-4.3329e-018	0	
-1.30825e-017	1.31097e-017	0	
-8.26189e-017	4.3445e-018	0	
-4.92602e-017	-7.61471e-018	0	
-4.15578e-017	-2.72121e-018	0	
-3.26375e-017	-3.49655e-018	0	
-2.66186e-017	-3.19147e-018	0	
-2.18591e-017	-3.29172e-018	0	
-1.80491e-017	-3.37478e-018	0	
-1.49058e-017	-3.55372e-018	0	
-1.22899e-017	-3.74902e-018	0	
-1.00817e-017	-3.94933e-018	0	
-8.18673e-018	-4.13329e-018	0	
-6.52441e-018	-4.29289e-018	0	
-5.03847e-018	-4.42453e-018	0	
-3.67891e-018	-4.52674e-018	0	
-2.40658e-018	-4.59998e-018	0	
-1.18992e-018	-4.6436e-018	0	
-1.714e-022	-4.65798e-018	0	
1.18959e-018	-4.64374e-018	0	
2.40627e-018	-4.60025e-018	0	
3.67865e-018	-4.52712e-018	0	
5.03826e-018	-4.42499e-018	0	
6.52425e-018	-4.29338e-018	0	
8.18663e-018	-4.13379e-018	0	
1.00817e-017	-3.94981e-018	0	
1.22899e-017	-3.74944e-018	0	
1.49059e-017	-3.55407e-018	0	
1.80491e-017	-3.37504e-018	0	
2.18591e-017	-3.29191e-018	0	
2.66187e-017	-3.1916e-018	0	
3.26375e-017	-3.49661e-018	0	
4.15578e-017	-2.72124e-018	0	
4.92603e-017	-7.61472e-018	0	
8.26189e-017	4.3445e-018	0	
1.30825e-017	1.31097e-017	0	
3.32764e-017	-4.3329e-018	0	
4.04748e-017	-1.94466e-017	0	
1.09219e-016	-6.13646e-017	0	
-3.26463e-006	-3.19007e-006	0	
-1.98702e-006	-2.40697e-006	0	
-1.70825e-006	-2.03695e-006	0	
-2.14759e-006	-2.17026e-006	0	
-4.21282e-006	-2.80909e-006	0	
-2.58419e-006	-1.54826e-006	0	
-1.88651e-006	-1.10129e-006	0	
-1.50063e-006	-9.15459e-007	0	
-1.20567e-006	-8.00803e-007	0	
-9.83385e-007	-7.45542e-007	0	
-8.05285e-007	-7.19476e-007	0	
-6.60903e-007	-7.13639e-007	0	
-5.41955e-007	-7.19368e-007	0	
-4.42751e-007	-7.31064e-007	0	
-3.58403e-007	-7.4487e-007	0	
-2.85074e-007	-7.58508e-007	0	
-2.19794e-007	-7.70674e-007	0	
-1.60292e-007	-7.80641e-007	0	
-1.04781e-007	-7.87994e-007	0	
-5.17855e-008	-7.92493e-007	0	
-2.53071e-012	-7.94007e-007	0	
5.17806e-008	-7.92496e-007	0	
1.04776e-007	-7.87999e-007	0	
1.60288e-007	-7.80649e-007	0	
2.19791e-007	-7.70683e-007	0	
2.85071e-007	-7.58518e-007	0	
3.58402e-007	-7.4488e-007	0	
4.4275e-007	-7.31074e-007	0	
5.41955e-007	-7.19377e-007	0	
6.60903e-007	-7.13646e-007	0	
8.05286e-007	-7.19481e-007	0	
9.83385e-007	-7.45546e-007	0	
1.20567e-006	-8.00806e-007	0	
1.50064e-006	-9.1546e-007	0	
1.88651e-006	-1.10129e-006	0	
2.58419e-006	-1.54826e-006	0	
4.21282e-006	-2.80909e-006	0	
2.14759e-006	-2.17026e-006	0	
1.70825e-006	-2.03695e-006	0	
1.98702e-006	-2.40697e-006	0	
3.26463e-006	-3.19007e-006	0	
-5.18909e-006	-5.12514e-006	0	
-3.91249e-006	-4.36416e-006	0	
-3.4443e-006	-3.75383e-006	0	
-3.84357e-006	-3.37198e-006	0	
-4.79258e-006	-3.59451e-006	0	
-5.66065e-006	-4.02313e-006	0	
-4.04708e-006	-2.98115e-006	0	
-3.10369e-006	-2.4109e-006	0	
-2.48926e-006	-2.10269e-006	0	
-2.00922e-006	-1.901e-006	0	
-1.63349e-006	-1.78597e-006	0	
-1.33078e-006	-1.72248e-006	0	
-1.08518e-006	-1.69305e-006	0	
-8.826e-007	-1.68362e-006	0	
-7.12073e-007	-1.68535e-006	0	
-5.64924e-007	-1.69258e-006	0	
-4.34692e-007	-1.70183e-006	0	
-3.16535e-007	-1.71085e-006	0	
-2.06696e-007	-1.71819e-006	0	
-1.02087e-007	-1.72293e-006	0	
-4.42941e-012	-1.72456e-006	0	
1.02079e-007	-1.72293e-006	0	
2.06688e-007	-1.7182e-006	0	
3.16528e-007	-1.71086e-006	0	
4.34686e-007	-1.70185e-006	0	
5.6492e-007	-1.6926e-006	0	
7.1207e-007	-1.68537e-006	0	
8.82599e-007	-1.68363e-006	0	
1.08518e-006	-1.69306e-006	0	
1.33078e-006	-1.72249e-006	0	
1.63349e-006	-1.78598e-006	0	
2.00922e-006	-1.901e-006	0	
2.48926e-006	-2.1027e-006	0	
3.10369e-006	-2.4109e-006	0	
4.04708e-006	-2.98116e-006	0	
5.66065e-006	-4.02313e-006	0	
4.79258e-006	-3.59451e-006	0	
3.84357e-006	-3.37198e-006	0	
3.4443e-006	-3.75383e-006	0	
3.91249e-006	-4.36416e-006	0	
5.18909e-006	-5.12514e-006	0	
-6.85502e-006	-6.58722e-006	0	
-5.72712e-006	-5.87572e-006	0	
-5.11283e-006	-5.22906e-006	0	
-5.11615e-006	-4.75723e-006	0	
-5.56504e-006	-4.60949e-006	0	
-6.0489e-006	-4.8596e-006	0	
-6.39156e-006	-5.18419e-006	0	
-4.87365e-006	-4.29045e-006	0	
-3.84877e-006	-3.72738e-006	0	
-3.1033e-006	-3.37547e-006	0	
-2.50379e-006	-3.13242e-006	0	
-2.02788e-006	-2.98288e-006	0	
-1.64493e-006	-2.89124e-006	0	
-1.33277e-006	-2.83775e-006	0	
-1.07192e-006	-2.80816e-006	0	
-8.48196e-007	-2.79361e-006	0	
-6.51237e-007	-2.78806e-006	0	
-4.73393e-007	-2.78738e-006	0	
-3.08732e-007	-2.78871e-006	0	
-1.52364e-007	-2.79021e-006	0	
-5.5516e-012	-2.79082e-006	0	
1.52353e-007	-2.79022e-006	0	
3.08722e-007	-2.78873e-006	0	
4.73384e-007	-2.7874e-006	0	
6.51229e-007	-2.78809e-006	0	
8.4819e-007	-2.79364e-006	0	
1.07191e-006	-2.80819e-006	0	
1.33277e-006	-2.83778e-006	0	
1.64492e-006	-2.89126e-006	0	
2.02788e-006	-2.98289e-006	0	
2.50379e-006	-3.13243e-006	0	
3.1033e-006	-3.37548e-006	0	
3.84877e-006	-3.72739e-006	0	
4.87365e-006	-4.29045e-006	0	
6.39156e-006	-5.18419e-006	0	
6.0489e-006	-4.8596e-006	0	
5.56504e-006	-4.60949e-006	0	
5.11615e-006	-4.75723e-006	0	
5.11283e-006	-5.22906e-006	0	
5.72712e-006	-5.87572e-006	0	
6.85502e-006	-6.58722e-006	0	
-8.42554e-006	-7.83789e-006	0	
-7.3415e-006	-7.18163e-006	0	
-6.61682e-006	-6.57666e-006	0	
-6.30991e-006	-6.12357e-006	0	
-6.36085e-006	-5.88749e-006	0	
-6.56571e-006	-5.88696e-006	0	
-6.69507e-006	-6.12712e-006	0	
-6.73465e-006	-6.39708e-006	0	
-5.31606e-006	-5.58571e-006	0	
-4.24515e-006	-5.04222e-006	0	
-3.41986e-006	-4.68763e-006	0	
-2.75444e-006	-4.43682e-006	0	
-2.22717e-006	-4.27273e-006	0	
-1.79959e-006	-4.16256e-006	0	
-1.44399e-006	-4.09055e-006	0	
-1.14e-006	-4.04483e-006	0	
-8.73464e-007	-4.01706e-006	0	
-6.33837e-007	-4.00104e-006	0	
-4.12835e-007	-3.99242e-006	0	
-2.0358e-007	-3.98833e-006	0	
-5.84646e-012	-3.98715e-006	0	
2.03568e-007	-3.98834e-006	0	
4.12824e-007	-3.99244e-006	0	
6.33828e-007	-4.00106e-006	0	
8.73456e-007	-4.01709e-006	0	
1.13999e-006	-4.04487e-006	0	
1.44399e-006	-4.09058e-006	0	
1.79959e-006	-4.16259e-006	0	
2.22717e-006	-4.27275e-006	0	
2.75444e-006	-4.43684e-006	0	
3.41986e-006	-4.68764e-006	0	
4.24515e-006	-5.04223e-006	0	
5.31606e-006	-5.58571e-006	0	
6.73465e-006	-6.39708e-006	0	
6.69507e-006	-6.12712e-006	0	
6.56571e-006	-5.88696e-006	0	
6.36085e-006	-5.88749e-006	0	
6.30991e-006	-6.12357e-006	0	
6.61682e-006	-6.57666e-006	0	
7.3415e-006	-7.18163e-006	0	
8.42554e-006	-7.83789e-006	0	
-9.91304e-006	-9.04106e-006	0	
-8.80903e-006	-8.42944e-006	0	
-7.96233e-006	-7.87779e-006	0	
-7.42374e-006	-7.45389e-006	0	
-7.16175e-006	-7.20661e-006	0	
-7.09362e-006	-7.12799e-006	0	
-7.0847e-006	-7.18992e-006	0	
-6.9922e-006	-7.40707e-006	0	
-6.85458e-006	-7.6381e-006	0	
-5.46518e-006	-6.86214e-006	0	
-4.35335e-006	-6.35617e-006	0	
-3.50285e-006	-6.02952e-006	0	
-2.82764e-006	-5.78785e-006	0	
-2.28278e-006	-5.6201e-006	0	
-1.82876e-006	-5.50306e-006	0	
-1.44116e-006	-5.42394e-006	0	
-1.10228e-006	-5.37168e-006	0	
-7.98695e-007	-5.3383e-006	0	
-5.19627e-007	-5.31815e-006	0	
-2.5606e-007	-5.30748e-006	0	
-5.35908e-012	-5.30415e-006	0	
2.5605e-007	-5.30749e-006	0	
5.19617e-007	-5.31817e-006	0	
7.98686e-007	-5.33833e-006	0	
1.10228e-006	-5.37171e-006	0	
1.44115e-006	-5.42397e-006	0	
1.82875e-006	-5.5031e-006	0	
2.28278e-006	-5.62013e-006	0	
2.82764e-006	-5.78787e-006	0	
3.50285e-006	-6.02954e-006	0	
4.35335e-006	-6.35618e-006	0	
5.46518e-006	-6.86215e-006	0	
6.85458e-006	-7.6381e-006	0	
6.9922e-006	-7.40707e-006	0	
7.0847e-006	-7.18992e-006	0	
7.09362e-006	-7.12799e-006	0	
7.16175e-006	-7.20661e-006	0	
7.42374e-006	-7.45389e-006	0	
7.96233e-006	-7.87779e-006	0	
8.80903e-006	-8.42944e-006	0	
9.91304e-006	-9.04106e-006	0	
-1.13358e-005	-1.02546e-005	0	
-1.01675e-005	-9.67513e-006	0	
-9.18133e-006	-9.16886e-006	0	
-8.43634e-006	-8.78313e-006	0	
-7.94257e-006	-8.5441e-006	0	
-7.65102e-006	-8.44139e-006	0	
-7.48088e-006	-8.42979e-006	0	
-7.32214e-006	-8.48435e-006	0	
-7.07163e-006	-8.64755e-006	0	
-6.77277e-006	-8.82522e-006	0	
-5.31831e-006	-8.10886e-006	0	
-4.24657e-006	-7.67748e-006	0	
-3.43619e-006	-7.3875e-006	0	
-2.77463e-006	-7.16709e-006	0	
-2.22051e-006	-7.01367e-006	0	
-1.74783e-006	-6.90631e-006	0	
-1.33533e-006	-6.83252e-006	0	
-9.66559e-007	-6.78333e-006	0	
-6.28334e-007	-6.75237e-006	0	
-3.09469e-007	-6.73541e-006	0	
-4.22009e-012	-6.73003e-006	0	
3.0946e-007	-6.73542e-006	0	
6.28327e-007	-6.75239e-006	0	
9.66552e-007	-6.78336e-006	0	
1.33532e-006	-6.83256e-006	0	
1.74782e-006	-6.90635e-006	0	
2.2205e-006	-7.01371e-006	0	
2.77463e-006	-7.16712e-006	0	
3.43619e-006	-7.38752e-006	0	
4.24657e-006	-7.6775e-006	0	
5.31831e-006	-8.10887e-006	0	
6.77277e-006	-8.82522e-006	0	
7.07163e-006	-8.64755e-006	0	
7.32214e-006	-8.48435e-006	0	
7.48088e-006	-8.42979e-006	0	
7.65102e-006	-8.44139e-006	0	
7.94257e-006	-8.5441e-006	0	
8.43634e-006	-8.78313e-006	0	
9.18133e-006	-9.16886e-006	0	
1.01675e-005	-9.67513e-006	0	
1.13358e-005	-1.02546e-005	0	
-1.27181e-005	-1.15168e-005	0	
-1.1449e-005	-1.09561e-005	0	
-1.03019e-005	-1.04796e-005	0	
-9.35292e-006	-1.01265e-005	0	
-8.65593e-006	-9.91362e-006	0	
-8.21274e-006	-9.80876e-006	0	
-7.92559e-006	-9.75724e-006	0	
-7.67813e-006	-9.72737e-006	0	
-7.37115e-006	-9.72355e-006	0	
-6.92934e-006	-9.79258e-006	0	
-6.29251e-006	-9.86556e-006	0	
-4.97474e-006	-9.3431e-006	0	
-4.03735e-006	-8.99718e-006	0	
-3.25698e-006	-8.76395e-006	0	
-2.60739e-006	-8.59271e-006	0	
-2.05207e-006	-8.469e-006	0	
-1.56742e-006	-8.38064e-006	0	
-1.13412e-006	-8.31996e-006	0	
-7.36992e-007	-8.2808e-006	0	
-3.62902e-007	-8.25892e-006	0	
-2.62461e-012	-8.25189e-006	0	
3.62896e-007	-8.25893e-006	0	
7.36987e-007	-8.28083e-006	0	
1.13411e-006	-8.32e-006	0	
1.56742e-006	-8.38068e-006	0	
2.05207e-006	-8.46904e-006	0	
2.60739e-006	-8.59274e-006	0	
3.25698e-006	-8.76398e-006	0	
4.03735e-006	-8.9972e-006	0	
4.97474e-006	-9.34311e-006	0	
6.29251e-006	-9.86556e-006	0	
6.92934e-006	-9.79258e-006	0	
7.37115e-006	-9.72355e-006	0	
7.67813e-006	-9.72737e-006	0	
7.92559e-006	-9.75724e-006	0	
8.21274e-006	-9.80876e-006	0	
8.65593e-006	-9.91362e-006	0	
9.35292e-006	-1.01265e-005	0	
1.03019e-005	-1.04796e-005	0	
1.1449e-005	-1.09561e-005	0	
1.27181e-005	-1.15168e-005	0	
-1.40903e-005	-1.28685e-005	0	
-1.26823e-005	-1.23136e-005	0	
-1.13502e-005	-1.1844e-005	0	
-1.01773e-005	-1.15007e-005	0	
-9.27648e-006	-1.1317e-005	0	
-8.72745e-006	-1.12378e-005	0	
-8.41482e-006	-1.11547e-005	0	
-8.10731e-006	-1.10703e-005	0	
-7.72414e-006	-1.10108e-005	0	
-7.1856e-006	-1.09554e-005	0	
-6.29228e-006	-1.09087e-005	0	
-5.58943e-006	-1.07999e-005	0	
-4.57476e-006	-1.05867e-005	0	
-3.70296e-006	-1.03899e-005	0	
-2.97326e-006	-1.02222e-005	0	
-2.34437e-006	-1.00937e-005	0	
-1.79173e-006	-9.9996e-006	0	
-1.29681e-006	-9.93343e-006	0	
-8.42853e-007	-9.8898e-006	0	
-4.15069e-007	-9.865e-006	0	
-8.03974e-013	-9.85696e-006	0	
4.15067e-007	-9.86501e-006	0	
8.42852e-007	-9.88982e-006	0	
1.29681e-006	-9.93346e-006	0	
1.79173e-006	-9.99964e-006	0	
2.34437e-006	-1.00938e-005	0	
2.97326e-006	-1.02222e-005	0	
3.70296e-006	-1.03899e-005	0	
4.57476e-006	-1.05867e-005	0	
5.58943e-006	-1.07999e-005	0	
6.29228e-006	-1.09087e-005	0	
7.1856e-006	-1.09554e-005	0	
7.72414e-006	-1.10108e-005	0	
8.10731e-006	-1.10703e-005	0	
8.41482e-006	-1.11547e-005	0	
8.72745e-006	-1.12378e-005	0	
9.27648e-006	-1.1317e-005	0	
1.01773e-005	-1.15007e-005	0	
1.13502e-005	-1.1844e-005	0	
1.26823e-005	-1.23136e-005	0	
1.40903e-005	-1.28685e-005	0	
-1.54736e-005	-1.43653e-005	0	
-1.38908e-005	-1.38087e-005	0	
-1.23632e-005	-1.33231e-005	0	
-1.09436e-005	-1.29359e-005	0	
-9.7334e-006	-1.27214e-005	0	
-9.18532e-006	-1.26865e-005	0	
-8.92682e-006	-1.25884e-005	0	
-8.59787e-006	-1.2469e-005	0	
-8.12258e-006	-1.24071e-005	0	
-7.51416e-006	-1.24114e-005	0	
-6.76138e-006	-1.24999e-005	0	
-6.23375e-006	-1.26588e-005	0	
-5.03881e-006	-1.22451e-005	0	
-4.10134e-006	-1.20462e-005	0	
-3.30982e-006	-1.18927e-005	0	
-2.61553e-006	-1.17666e-005	0	
-2.00087e-006	-1.16767e-005	0	
-1.44965e-006	-1.16115e-005	0	
-9.42941e-007	-1.15673e-005	0	
-4.64567e-007	-1.15417e-005	0	
1.00562e-012	-1.15333e-005	0	
4.64568e-007	-1.15417e-005	0	
9.42943e-007	-1.15673e-005	0	
1.44965e-006	-1.16115e-005	0	
2.00087e-006	-1.16767e-005	0	
2.61554e-006	-1.17667e-005	0	
3.30982e-006	-1.18927e-005	0	
4.10134e-006	-1.20462e-005	0	
5.03881e-006	-1.22451e-005	0	
6.23375e-006	-1.26588e-005	0	
6.76138e-006	-1.24999e-005	0	
7.51416e-006	-1.24114e-005	0	
8.12258e-006	-1.24071e-005	0	
8.59787e-006	-1.2469e-005	0	
8.92682e-006	-1.25884e-005	0	
9.18532e-006	-1.26865e-005	0	
9.7334e-006	-1.27214e-005	0	
1.09436e-005	-1.29359e-005	0	
1.23632e-005	-1.33231e-005	0	
1.38908e-005	-1.38087e-005	0	
1.54736e-005	-1.43653e-005	0	
-1.68625e-005	-1.60649e-005	0	
-1.50836e-005	-1.55122e-005	0	
-1.33731e-005	-1.50205e-005	0	
-1.17181e-005	-1.45763e-005	0	
-1.00378e-005	-1.41565e-005	0	
-9.6031e-006	-1.38957e-005	0	
-9.47053e-006	-1.39583e-005	0	
-9.11711e-006	-1.38792e-005	0	
-8.54239e-006	-1.38531e-005	0	
-7.86632e-006	-1.38526e-005	0	
-7.15004e-006	-1.3839e-005	0	
-6.37521e-006	-1.38947e-005	0	
-5.39665e-006	-1.39582e-005	0	
-4.47068e-006	-1.37271e-005	0	
-3.61085e-006	-1.35776e-005	0	
-2.85368e-006	-1.34808e-005	0	
-2.18832e-006	-1.34034e-005	0	
-1.58836e-006	-1.33447e-005	0	
-1.03466e-006	-1.33031e-005	0	
-5.10127e-007	-1.32786e-005	0	
2.59306e-012	-1.32706e-005	0	
5.10132e-007	-1.32786e-005	0	
1.03466e-006	-1.33031e-005	0	
1.58837e-006	-1.33447e-005	0	
2.18832e-006	-1.34034e-005	0	
2.85368e-006	-1.34808e-005	0	
3.61085e-006	-1.35776e-005	0	
4.47068e-006	-1.37271e-005	0	
5.39665e-006	-1.39582e-005	0	
6.37521e-006	-1.38947e-005	0	
7.15004e-006	-1.3839e-005	0	
7.86632e-006	-1.38526e-005	0	
8.54239e-006	-1.38531e-005	0	
9.11711e-006	-1.38792e-005	0	
9.47053e-006	-1.39583e-005	0	
9.6031e-006	-1.38957e-005	0	
1.00378e-005	-1.41565e-005	0	
1.17181e-005	-1.45763e-005	0	
1.33731e-005	-1.50205e-005	0	
1.50836e-005	-1.55122e-005	0	
1.68625e-005	-1.60649e-005	0	
-1.82234e-005	-1.79945e-005	0	
-1.62484e-005	-1.74616e-005	0	
-1.4364e-005	-1.69896e-005	0	
-1.24946e-005	-1.65937e-005	0	
-1.0496e-005	-1.62974e-005	0	
-9.91603e-006	-1.48776e-005	0	
-1.01788e-005	-1.52145e-005	0	
-9.61301e-006	-1.53806e-005	0	
-8.97543e-006	-1.54073e-005	0	
-8.26046e-006	-1.53979e-005	0	
-7.48713e-006	-1.53879e-005	0	
-6.60791e-006	-1.53575e-005	0	
-5.39256e-006	-1.53209e-005	0	
-4.76105e-006	-1.5333e-005	0	
-3.8504e-006	-1.52917e-005	0	
-3.04749e-006	-1.52432e-005	0	
-2.34945e-006	-1.51783e-005	0	
-1.7111e-006	-1.51255e-005	0	
-1.11609e-006	-1.50886e-005	0	
-5.50723e-007	-1.50669e-005	0	
3.79703e-012	-1.50597e-005	0	
5.5073e-007	-1.50669e-005	0	
1.11609e-006	-1.50886e-005	0	
1.7111e-006	-1.51255e-005	0	
2.34945e-006	-1.51783e-005	0	
3.04749e-006	-1.52432e-005	0	
3.8504e-006	-1.52917e-005	0	
4.76105e-006	-1.5333e-005	0	
5.39256e-006	-1.53209e-005	0	
6.60791e-006	-1.53575e-005	0	
7.48713e-006	-1.53879e-005	0	
8.26046e-006	-1.53979e-005	0	
8.97543e-006	-1.54073e-005	0	
9.61301e-006	-1.53806e-005	0	
1.01788e-005	-1.52145e-005	0	
9.91603e-006	-1.48776e-005	0	
1.0496e-005	-1.62974e-005	0	
1.24946e-005	-1.65937e-005	0	
1.4364e-005	-1.69896e-005	0	
1.62484e-005	-1.74616e-005	0	
1.82234e-005	-1.79945e-005	0	
-1.9519e-005	-2.0136e-005	0	
-1.73712e-005	-1.96309e-005	0	
-1.53246e-005	-1.91855e-005	0	
-1.32763e-005	-1.88045e-005	0	
-1.11083e-005	-1.84936e-005	0	
-1.07224e-005	-1.78802e-005	0	
-1.11515e-005	-1.73495e-005	0	
-1.01596e-005	-1.72282e-005	0	
-9.45558e-006	-1.71019e-005	0	
-8.67164e-006	-1.70795e-005	0	
-7.83057e-006	-1.70836e-005	0	
-6.90477e-006	-1.71237e-005	0	
-5.85356e-006	-1.72335e-005	0	
-5.05964e-006	-1.74069e-005	0	
-4.02818e-006	-1.71229e-005	0	
-3.21579e-006	-1.70504e-005	0	
-2.4902e-006	-1.69936e-005	0	
-1.81673e-006	-1.69448e-005	0	
-1.18542e-006	-1.69166e-005	0	
-5.85424e-007	-1.68993e-005	0	
4.52245e-012	-1.68935e-005	0	
5.85433e-007	-1.68993e-005	0	
1.18542e-006	-1.69166e-005	0	
1.81674e-006	-1.69448e-005	0	
2.49021e-006	-1.69937e-005	0	
3.21579e-006	-1.70504e-005	0	
4.02819e-006	-1.71229e-005	0	
5.05964e-006	-1.74069e-005	0	
5.85356e-006	-1.72335e-005	0	
6.90477e-006	-1.71237e-005	0	
7.83057e-006	-1.70836e-005	0	
8.67164e-006	-1.70795e-005	0	
9.45558e-006	-1.71019e-005	0	
1.01596e-005	-1.72282e-005	0	
1.11515e-005	-1.73495e-005	0	
1.07224e-005	-1.78802e-005	0	
1.11083e-005	-1.84936e-005	0	
1.32763e-005	-1.88045e-005	0	
1.53246e-005	-1.91855e-005	0	
1.73712e-005	-1.96309e-005	0	
1.9519e-005	-2.0136e-005	0	
-2.07295e-005	-2.2442e-005	0	
-1.84487e-005	-2.19662e-005	0	
-1.6273e-005	-2.15365e-005	0	
-1.40935e-005	-2.1153e-005	0	
-1.18048e-005	-2.0815e-005	0	
-1.14449e-005	-1.99166e-005	0	
-1.11921e-005	-1.86347e-005	0	
-1.0818e-005	-1.88191e-005	0	
-9.95946e-006	-1.8882e-005	0	
-9.09714e-006	-1.88653e-005	0	
-8.19194e-006	-1.88565e-005	0	
-7.22119e-006	-1.88641e-005	0	
-6.23488e-006	-1.88598e-005	0	
-5.21606e-006	-1.89243e-005	0	
-4.03589e-006	-1.89989e-005	0	
-3.38123e-006	-1.88706e-005	0	
-2.6085e-006	-1.88166e-005	0	
-1.89789e-006	-1.87987e-005	0	
-1.24119e-006	-1.87822e-005	0	
-6.13964e-007	-1.87706e-005	0	
4.74662e-012	-1.87658e-005	0	
6.13973e-007	-1.87706e-005	0	
1.24119e-006	-1.87822e-005	0	
1.8979e-006	-1.87987e-005	0	
2.60851e-006	-1.88166e-005	0	
3.38123e-006	-1.88706e-005	0	
4.03589e-006	-1.89989e-005	0	
5.21606e-006	-1.89243e-005	0	
6.23488e-006	-1.88598e-005	0	
7.22119e-006	-1.88641e-005	0	
8.19194e-006	-1.88565e-005	0	
9.09714e-006	-1.88653e-005	0	
9.95946e-006	-1.8882e-005	0	
1.0818e-005	-1.88191e-005	0	
1.11921e-005	-1.86347e-005	0	
1.14449e-005	-1.99166e-005	0	
1.18048e-005	-2.0815e-005	0	
1.40935e-005	-2.1153e-005	0	
1.6273e-005	-2.15365e-005	0	
1.84487e-005	-2.19662e-005	0	
2.07295e-005	-2.2442e-005	0	
-2.18498e-005	-2.48609e-005	0	
-1.94816e-005	-2.44139e-005	0	
-1.72202e-005	-2.39943e-005	0	
-1.49564e-005	-2.36018e-005	0	
-1.2585e-005	-2.32357e-005	0	
-1.21953e-005	-2.23409e-005	0	
-1.17133e-005	-2.15675e-005	0	
-1.16597e-005	-2.09605e-005	0	
-1.04809e-005	-2.08448e-005	0	
-9.56048e-006	-2.07178e-005	0	
-8.58865e-006	-2.06833e-005	0	
-7.5844e-006	-2.06702e-005	0	
-6.56106e-006	-2.06567e-005	0	
-5.4594e-006	-2.06228e-005	0	
-4.03775e-006	-2.05813e-005	0	
-3.50097e-006	-2.06307e-005	0	
-2.68141e-006	-2.06709e-005	0	
-1.94632e-006	-2.06983e-005	0	
-1.28343e-006	-2.06869e-005	0	
-6.38251e-007	-2.06752e-005	0	
4.51487e-012	-2.06712e-005	0	
6.38259e-007	-2.06752e-005	0	
1.28344e-006	-2.06869e-005	0	
1.94633e-006	-2.06983e-005	0	
2.68142e-006	-2.06709e-005	0	
3.50097e-006	-2.06307e-005	0	
4.03775e-006	-2.05813e-005	0	
5.4594e-006	-2.06228e-005	0	
6.56106e-006	-2.06567e-005	0	
7.5844e-006	-2.06702e-005	0	
8.58865e-006	-2.06833e-005	0	
9.56048e-006	-2.07178e-005	0	
1.04809e-005	-2.08448e-005	0	
1.16597e-005	-2.09605e-005	0	
1.17133e-005	-2.15675e-005	0	
1.21953e-005	-2.23409e-005	0	
1.2585e-005	-2.32357e-005	0	
1.49564e-005	-2.36018e-005	0	
1.72202e-005	-2.39943e-005	0	
1.94816e-005	-2.44139e-005	0	
2.18498e-005	-2.48609e-005	0	
-2.288e-005	-2.73441e-005	0	
-2.04706e-005	-2.69257e-005	0	
-1.81682e-005	-2.65151e-005	0	
-1.58635e-005	-2.61125e-005	0	
-1.34516e-005	-2.57184e-005	0	
-1.29988e-005	-2.4713e-005	0	
-1.24227e-005	-2.3708e-005	0	
-1.16974e-005	-2.23923e-005	0	
-1.10771e-005	-2.25551e-005	0	
-1.00347e-005	-2.26051e-005	0	
-9.00505e-006	-2.25789e-005	0	
-7.96118e-006	-2.25552e-005	0	
-6.8882e-006	-2.25555e-005	0	
-5.75819e-006	-2.25943e-005	0	
-4.53205e-006	-2.27068e-005	0	
-3.61832e-006	-2.28899e-005	0	
-2.70062e-006	-2.26478e-005	0	
-1.99244e-006	-2.26343e-005	0	
-1.32327e-006	-2.26212e-005	0	
-6.59953e-007	-2.26062e-005	0	
3.92685e-012	-2.2605e-005	0	
6.59961e-007	-2.26062e-005	0	
1.32328e-006	-2.26212e-005	0	
1.99244e-006	-2.26343e-005	0	
2.70062e-006	-2.26478e-005	0	
3.61832e-006	-2.28899e-005	0	
4.53205e-006	-2.27068e-005	0	
5.75819e-006	-2.25943e-005	0	
6.8882e-006	-2.25555e-005	0	
7.96118e-006	-2.25552e-005	0	
9.00505e-006	-2.25789e-005	0	
1.00347e-005	-2.26051e-005	0	
1.10771e-005	-2.25551e-005	0	
1.16974e-005	-2.23923e-005	0	
1.24227e-005	-2.3708e-005	0	
1.29988e-005	-2.4713e-005	0	
1.34516e-005	-2.57184e-005	0	
1.58635e-005	-2.61125e-005	0	
1.81682e-005	-2.65151e-005	0	
2.04706e-005	-2.69257e-005	0	
2.288e-005	-2.73441e-005	0	
-2.382e-005	-2.98454e-005	0	
-2.14159e-005	-2.94558e-005	0	
-1.91174e-005	-2.90549e-005	0	