# vtk DataFile Version 4.1
vtk output
ASCII
DATASET UNSTRUCTURED_GRID

POINTS	7401	float
0	0	0	
0	1	0	
0	2	0	
0	3	0	
0	4	0	
0	5	0	
0	6	0	
0	7	0	
0	8	0	
0	9	0	
0	10	0	
0	11	0	
0	12	0	
0	13	0	
0	14	0	
0	15	0	
0	16	0	
0	17	0	
0	18	0	
0	19	0	
0	20	0	
0	21	0	
0	22	0	
0	23	0	
0	24	0	
0	25	0	
0	26	0	
0	27	0	
0	28	0	
0	29	0	
0	30	0	
0	31	0	
0	32	0	
0	33	0	
0	34	0	
0	35	0	
0	36	0	
0	37	0	
0	38	0	
0	39	0	
0	40	0	
1	0	0	
1	1	0	
1	2	0	
1	3	0	
1	4	0	
1	5	0	
1	6	0	
1	7	0	
1	8	0	
1	9	0	
1	10	0	
1	11	0	
1	12	0	
1	13	0	
1	14	0	
1	15	0	
1	16	0	
1	17	0	
1	18	0	
1	19	0	
1	20	0	
1	21	0	
1	22	0	
1	23	0	
1	24	0	
1	25	0	
1	26	0	
1	27	0	
1	28	0	
1	29	0	
1	30	0	
1	31	0	
1	32	0	
1	33	0	
1	34	0	
1	35	0	
1	36	0	
1	37	0	
1	38	0	
1	39	0	
1	40	0	
2	0	0	
2	1	0	
2	2	0	
2	3	0	
2	4	0	
2	5	0	
2	6	0	
2	7	0	
2	8	0	
2	9	0	
2	10	0	
2	11	0	
2	12	0	
2	13	0	
2	14	0	
2	15	0	
2	16	0	
2	17	0	
2	18	0	
2	19	0	
2	20	0	
2	21	0	
2	22	0	
2	23	0	
2	24	0	
2	25	0	
2	26	0	
2	27	0	
2	28	0	
2	29	0	
2	30	0	
2	31	0	
2	32	0	
2	33	0	
2	34	0	
2	35	0	
2	36	0	
2	37	0	
2	38	0	
2	39	0	
2	40	0	
3	0	0	
3	1	0	
3	2	0	
3	3	0	
3	4	0	
3	5	0	
3	6	0	
3	7	0	
3	8	0	
3	9	0	
3	10	0	
3	11	0	
3	12	0	
3	13	0	
3	14	0	
3	15	0	
3	16	0	
3	17	0	
3	18	0	
3	19	0	
3	20	0	
3	21	0	
3	22	0	
3	23	0	
3	24	0	
3	25	0	
3	26	0	
3	27	0	
3	28	0	
3	29	0	
3	30	0	
3	31	0	
3	32	0	
3	33	0	
3	34	0	
3	35	0	
3	36	0	
3	37	0	
3	38	0	
3	39	0	
3	40	0	
4	0	0	
4	1	0	
4	2	0	
4	3	0	
4	4	0	
4	5	0	
4	6	0	
4	7	0	
4	8	0	
4	9	0	
4	10	0	
4	11	0	
4	12	0	
4	13	0	
4	14	0	
4	15	0	
4	16	0	
4	17	0	
4	18	0	
4	19	0	
4	20	0	
4	21	0	
4	22	0	
4	23	0	
4	24	0	
4	25	0	
4	26	0	
4	27	0	
4	28	0	
4	29	0	
4	30	0	
4	31	0	
4	32	0	
4	33	0	
4	34	0	
4	35	0	
4	36	0	
4	37	0	
4	38	0	
4	39	0	
4	40	0	
5	0	0	
5	1	0	
5	2	0	
5	3	0	
5	4	0	
5	5	0	
5	6	0	
5	7	0	
5	8	0	
5	9	0	
5	10	0	
5	11	0	
5	12	0	
5	13	0	
5	14	0	
5	15	0	
5	16	0	
5	17	0	
5	18	0	
5	19	0	
5	20	0	
5	21	0	
5	22	0	
5	23	0	
5	24	0	
5	25	0	
5	26	0	
5	27	0	
5	28	0	
5	29	0	
5	30	0	
5	31	0	
5	32	0	
5	33	0	
5	34	0	
5	35	0	
5	36	0	
5	37	0	
5	38	0	
5	39	0	
5	40	0	
6	0	0	
6	1	0	
6	2	0	
6	3	0	
6	4	0	
6	5	0	
6	6	0	
6	7	0	
6	8	0	
6	9	0	
6	10	0	
6	11	0	
6	12	0	
6	13	0	
6	14	0	
6	15	0	
6	16	0	
6	17	0	
6	18	0	
6	19	0	
6	20	0	
6	21	0	
6	22	0	
6	23	0	
6	24	0	
6	25	0	
6	26	0	
6	27	0	
6	28	0	
6	29	0	
6	30	0	
6	31	0	
6	32	0	
6	33	0	
6	34	0	
6	35	0	
6	36	0	
6	37	0	
6	38	0	
6	39	0	
6	40	0	
7	0	0	
7	1	0	
7	2	0	
7	3	0	
7	4	0	
7	5	0	
7	6	0	
7	7	0	
7	8	0	
7	9	0	
7	10	0	
7	11	0	
7	12	0	
7	13	0	
7	14	0	
7	15	0	
7	16	0	
7	17	0	
7	18	0	
7	19	0	
7	20	0	
7	21	0	
7	22	0	
7	23	0	
7	24	0	
7	25	0	
7	26	0	
7	27	0	
7	28	0	
7	29	0	
7	30	0	
7	31	0	
7	32	0	
7	33	0	
7	34	0	
7	35	0	
7	36	0	
7	37	0	
7	38	0	
7	39	0	
7	40	0	
8	0	0	
8	1	0	
8	2	0	
8	3	0	
8	4	0	
8	5	0	
8	6	0	
8	7	0	
8	8	0	
8	9	0	
8	10	0	
8	11	0	
8	12	0	
8	13	0	
8	14	0	
8	15	0	
8	16	0	
8	17	0	
8	18	0	
8	19	0	
8	20	0	
8	21	0	
8	22	0	
8	23	0	
8	24	0	
8	25	0	
8	26	0	
8	27	0	
8	28	0	
8	29	0	
8	30	0	
8	31	0	
8	32	0	
8	33	0	
8	34	0	
8	35	0	
8	36	0	
8	37	0	
8	38	0	
8	39	0	
8	40	0	
9	0	0	
9	1	0	
9	2	0	
9	3	0	
9	4	0	
9	5	0	
9	6	0	
9	7	0	
9	8	0	
9	9	0	
9	10	0	
9	11	0	
9	12	0	
9	13	0	
9	14	0	
9	15	0	
9	16	0	
9	17	0	
9	18	0	
9	19	0	
9	20	0	
9	21	0	
9	22	0	
9	23	0	
9	24	0	
9	25	0	
9	26	0	
9	27	0	
9	28	0	
9	29	0	
9	30	0	
9	31	0	
9	32	0	
9	33	0	
9	34	0	
9	35	0	
9	36	0	
9	37	0	
9	38	0	
9	39	0	
9	40	0	
10	0	0	
10	1	0	
10	2	0	
10	3	0	
10	4	0	
10	5	0	
10	6	0	
10	7	0	
10	8	0	
10	9	0	
10	10	0	
10	11	0	
10	12	0	
10	13	0	
10	14	0	
10	15	0	
10	16	0	
10	17	0	
10	18	0	
10	19	0	
10	20	0	
10	21	0	
10	22	0	
10	23	0	
10	24	0	
10	25	0	
10	26	0	
10	27	0	
10	28	0	
10	29	0	
10	30	0	
10	31	0	
10	32	0	
10	33	0	
10	34	0	
10	35	0	
10	36	0	
10	37	0	
10	38	0	
10	39	0	
10	40	0	
11	0	0	
11	1	0	
11	2	0	
11	3	0	
11	4	0	
11	5	0	
11	6	0	
11	7	0	
11	8	0	
11	9	0	
11	10	0	
11	11	0	
11	12	0	
11	13	0	
11	14	0	
11	15	0	
11	16	0	
11	17	0	
11	18	0	
11	19	0	
11	20	0	
11	21	0	
11	22	0	
11	23	0	
11	24	0	
11	25	0	
11	26	0	
11	27	0	
11	28	0	
11	29	0	
11	30	0	
11	31	0	
11	32	0	
11	33	0	
11	34	0	
11	35	0	
11	36	0	
11	37	0	
11	38	0	
11	39	0	
11	40	0	
12	0	0	
12	1	0	
12	2	0	
12	3	0	
12	4	0	
12	5	0	
12	6	0	
12	7	0	
12	8	0	
12	9	0	
12	10	0	
12	11	0	
12	12	0	
12	13	0	
12	14	0	
12	15	0	
12	16	0	
12	17	0	
12	18	0	
12	19	0	
12	20	0	
12	21	0	
12	22	0	
12	23	0	
12	24	0	
12	25	0	
12	26	0	
12	27	0	
12	28	0	
12	29	0	
12	30	0	
12	31	0	
12	32	0	
12	33	0	
12	34	0	
12	35	0	
12	36	0	
12	37	0	
12	38	0	
12	39	0	
12	40	0	
13	0	0	
13	1	0	
13	2	0	
13	3	0	
13	4	0	
13	5	0	
13	6	0	
13	7	0	
13	8	0	
13	9	0	
13	10	0	
13	11	0	
13	12	0	
13	13	0	
13	14	0	
13	15	0	
13	16	0	
13	17	0	
13	18	0	
13	19	0	
13	20	0	
13	21	0	
13	22	0	
13	23	0	
13	24	0	
13	25	0	
13	26	0	
13	27	0	
13	28	0	
13	29	0	
13	30	0	
13	31	0	
13	32	0	
13	33	0	
13	34	0	
13	35	0	
13	36	0	
13	37	0	
13	38	0	
13	39	0	
13	40	0	
14	0	0	
14	1	0	
14	2	0	
14	3	0	
14	4	0	
14	5	0	
14	6	0	
14	7	0	
14	8	0	
14	9	0	
14	10	0	
14	11	0	
14	12	0	
14	13	0	
14	14	0	
14	15	0	
14	16	0	
14	17	0	
14	18	0	
14	19	0	
14	20	0	
14	21	0	
14	22	0	
14	23	0	
14	24	0	
14	25	0	
14	26	0	
14	27	0	
14	28	0	
14	29	0	
14	30	0	
14	31	0	
14	32	0	
14	33	0	
14	34	0	
14	35	0	
14	36	0	
14	37	0	
14	38	0	
14	39	0	
14	40	0	
15	0	0	
15	1	0	
15	2	0	
15	3	0	
15	4	0	
15	5	0	
15	6	0	
15	7	0	
15	8	0	
15	9	0	
15	10	0	
15	11	0	
15	12	0	
15	13	0	
15	14	0	
15	15	0	
15	16	0	
15	17	0	
15	18	0	
15	19	0	
15	20	0	
15	21	0	
15	22	0	
15	23	0	
15	24	0	
15	25	0	
15	26	0	
15	27	0	
15	28	0	
15	29	0	
15	30	0	
15	31	0	
15	32	0	
15	33	0	
15	34	0	
15	35	0	
15	36	0	
15	37	0	
15	38	0	
15	39	0	
15	40	0	
16	0	0	
16	1	0	
16	2	0	
16	3	0	
16	4	0	
16	5	0	
16	6	0	
16	7	0	
16	8	0	
16	9	0	
16	10	0	
16	11	0	
16	12	0	
16	13	0	
16	14	0	
16	15	0	
16	16	0	
16	17	0	
16	18	0	
16	19	0	
16	20	0	
16	21	0	
16	22	0	
16	23	0	
16	24	0	
16	25	0	
16	26	0	
16	27	0	
16	28	0	
16	29	0	
16	30	0	
16	31	0	
16	32	0	
16	33	0	
16	34	0	
16	35	0	
16	36	0	
16	37	0	
16	38	0	
16	39	0	
16	40	0	
17	0	0	
17	1	0	
17	2	0	
17	3	0	
17	4	0	
17	5	0	
17	6	0	
17	7	0	
17	8	0	
17	9	0	
17	10	0	
17	11	0	
17	12	0	
17	13	0	
17	14	0	
17	15	0	
17	16	0	
17	17	0	
17	18	0	
17	19	0	
17	20	0	
17	21	0	
17	22	0	
17	23	0	
17	24	0	
17	25	0	
17	26	0	
17	27	0	
17	28	0	
17	29	0	
17	30	0	
17	31	0	
17	32	0	
17	33	0	
17	34	0	
17	35	0	
17	36	0	
17	37	0	
17	38	0	
17	39	0	
17	40	0	
18	0	0	
18	1	0	
18	2	0	
18	3	0	
18	4	0	
18	5	0	
18	6	0	
18	7	0	
18	8	0	
18	9	0	
18	10	0	
18	11	0	
18	12	0	
18	13	0	
18	14	0	
18	15	0	
18	16	0	
18	17	0	
18	18	0	
18	19	0	
18	20	0	
18	21	0	
18	22	0	
18	23	0	
18	24	0	
18	25	0	
18	26	0	
18	27	0	
18	28	0	
18	29	0	
18	30	0	
18	31	0	
18	32	0	
18	33	0	
18	34	0	
18	35	0	
18	36	0	
18	37	0	
18	38	0	
18	39	0	
18	40	0	
19	0	0	
19	1	0	
19	2	0	
19	3	0	
19	4	0	
19	5	0	
19	6	0	
19	7	0	
19	8	0	
19	9	0	
19	10	0	
19	11	0	
19	12	0	
19	13	0	
19	14	0	
19	15	0	
19	16	0	
19	17	0	
19	18	0	
19	19	0	
19	20	0	
19	21	0	
19	22	0	
19	23	0	
19	24	0	
19	25	0	
19	26	0	
19	27	0	
19	28	0	
19	29	0	
19	30	0	
19	31	0	
19	32	0	
19	33	0	
19	34	0	
19	35	0	
19	36	0	
19	37	0	
19	38	0	
19	39	0	
19	40	0	
20	0	0	
20	1	0	
20	2	0	
20	3	0	
20	4	0	
20	5	0	
20	6	0	
20	7	0	
20	8	0	
20	9	0	
20	10	0	
20	11	0	
20	12	0	
20	13	0	
20	14	0	
20	15	0	
20	16	0	
20	17	0	
20	18	0	
20	19	0	
20	20	0	
20	21	0	
20	22	0	
20	23	0	
20	24	0	
20	25	0	
20	26	0	
20	27	0	
20	28	0	
20	29	0	
20	30	0	
20	31	0	
20	32	0	
20	33	0	
20	34	0	
20	35	0	
20	36	0	
20	37	0	
20	38	0	
20	39	0	
20	40	0	
21	0	0	
21	1	0	
21	2	0	
21	3	0	
21	4	0	
21	5	0	
21	6	0	
21	7	0	
21	8	0	
21	9	0	
21	10	0	
21	11	0	
21	12	0	
21	13	0	
21	14	0	
21	15	0	
21	16	0	
21	17	0	
21	18	0	
21	19	0	
21	20	0	
21	21	0	
21	22	0	
21	23	0	
21	24	0	
21	25	0	
21	26	0	
21	27	0	
21	28	0	
21	29	0	
21	30	0	
21	31	0	
21	32	0	
21	33	0	
21	34	0	
21	35	0	
21	36	0	
21	37	0	
21	38	0	
21	39	0	
21	40	0	
22	0	0	
22	1	0	
22	2	0	
22	3	0	
22	4	0	
22	5	0	
22	6	0	
22	7	0	
22	8	0	
22	9	0	
22	10	0	
22	11	0	
22	12	0	
22	13	0	
22	14	0	
22	15	0	
22	16	0	
22	17	0	
22	18	0	
22	19	0	
22	20	0	
22	21	0	
22	22	0	
22	23	0	
22	24	0	
22	25	0	
22	26	0	
22	27	0	
22	28	0	
22	29	0	
22	30	0	
22	31	0	
22	32	0	
22	33	0	
22	34	0	
22	35	0	
22	36	0	
22	37	0	
22	38	0	
22	39	0	
22	40	0	
23	0	0	
23	1	0	
23	2	0	
23	3	0	
23	4	0	
23	5	0	
23	6	0	
23	7	0	
23	8	0	
23	9	0	
23	10	0	
23	11	0	
23	12	0	
23	13	0	
23	14	0	
23	15	0	
23	16	0	
23	17	0	
23	18	0	
23	19	0	
23	20	0	
23	21	0	
23	22	0	
23	23	0	
23	24	0	
23	25	0	
23	26	0	
23	27	0	
23	28	0	
23	29	0	
23	30	0	
23	31	0	
23	32	0	
23	33	0	
23	34	0	
23	35	0	
23	36	0	
23	37	0	
23	38	0	
23	39	0	
23	40	0	
24	0	0	
24	1	0	
24	2	0	
24	3	0	
24	4	0	
24	5	0	
24	6	0	
24	7	0	
24	8	0	
24	9	0	
24	10	0	
24	11	0	
24	12	0	
24	13	0	
24	14	0	
24	15	0	
24	16	0	
24	17	0	
24	18	0	
24	19	0	
24	20	0	
24	21	0	
24	22	0	
24	23	0	
24	24	0	
24	25	0	
24	26	0	
24	27	0	
24	28	0	
24	29	0	
24	30	0	
24	31	0	
24	32	0	
24	33	0	
24	34	0	
24	35	0	
24	36	0	
24	37	0	
24	38	0	
24	39	0	
24	40	0	
25	0	0	
25	1	0	
25	2	0	
25	3	0	
25	4	0	
25	5	0	
25	6	0	
25	7	0	
25	8	0	
25	9	0	
25	10	0	
25	11	0	
25	12	0	
25	13	0	
25	14	0	
25	15	0	
25	16	0	
25	17	0	
25	18	0	
25	19	0	
25	20	0	
25	21	0	
25	22	0	
25	23	0	
25	24	0	
25	25	0	
25	26	0	
25	27	0	
25	28	0	
25	29	0	
25	30	0	
25	31	0	
25	32	0	
25	33	0	
25	34	0	
25	35	0	
25	36	0	
25	37	0	
25	38	0	
25	39	0	
25	40	0	
26	0	0	
26	1	0	
26	2	0	
26	3	0	
26	4	0	
26	5	0	
26	6	0	
26	7	0	
26	8	0	
26	9	0	
26	10	0	
26	11	0	
26	12	0	
26	13	0	
26	14	0	
26	15	0	
26	16	0	
26	17	0	
26	18	0	
26	19	0	
26	20	0	
26	21	0	
26	22	0	
26	23	0	
26	24	0	
26	25	0	
26	26	0	
26	27	0	
26	28	0	
26	29	0	
26	30	0	
26	31	0	
26	32	0	
26	33	0	
26	34	0	
26	35	0	
26	36	0	
26	37	0	
26	38	0	
26	39	0	
26	40	0	
27	0	0	
27	1	0	
27	2	0	
27	3	0	
27	4	0	
27	5	0	
27	6	0	
27	7	0	
27	8	0	
27	9	0	
27	10	0	
27	11	0	
27	12	0	
27	13	0	
27	14	0	
27	15	0	
27	16	0	
27	17	0	
27	18	0	
27	19	0	
27	20	0	
27	21	0	
27	22	0	
27	23	0	
27	24	0	
27	25	0	
27	26	0	
27	27	0	
27	28	0	
27	29	0	
27	30	0	
27	31	0	
27	32	0	
27	33	0	
27	34	0	
27	35	0	
27	36	0	
27	37	0	
27	38	0	
27	39	0	
27	40	0	
28	0	0	
28	1	0	
28	2	0	
28	3	0	
28	4	0	
28	5	0	
28	6	0	
28	7	0	
28	8	0	
28	9	0	
28	10	0	
28	11	0	
28	12	0	
28	13	0	
28	14	0	
28	15	0	
28	16	0	
28	17	0	
28	18	0	
28	19	0	
28	20	0	
28	21	0	
28	22	0	
28	23	0	
28	24	0	
28	25	0	
28	26	0	
28	27	0	
28	28	0	
28	29	0	
28	30	0	
[...]
POINT_DATA	7401
VECTORS d float
-1.23043e-016	-6.72982e-017	0	
-4.31108e-017	-1.70501e-017	0	
-2.80917e-017	-7.04366e-018	0	
-1.83329e-017	-3.3705e-018	0	
7.54514e-018	-1.63793e-018	0	
-8.43891e-018	-5.86124e-018	0	
-7.26778e-018	-1.03185e-017	0	
-5.10017e-018	-1.52251e-017	0	
-4.70505e-018	-1.52899e-017	0	
-4.27648e-018	-1.55321e-017	0	
-3.79203e-018	-1.58541e-017	0	
-3.26908e-018	-1.61261e-017	0	
-2.69259e-018	-1.64167e-017	0	
-2.15495e-018	-1.66205e-017	0	
-1.70302e-018	-1.67798e-017	0	
-1.3284e-018	-1.6898e-017	0	
-1.00714e-018	-1.69813e-017	0	
-7.24552e-019	-1.70391e-017	0	
-4.699e-019	-1.70762e-017	0	
-2.30273e-019	-1.70968e-017	0	
-1.01649e-024	-1.71037e-017	0	
2.30271e-019	-1.70968e-017	0	
4.69898e-019	-1.70762e-017	0	
7.2455e-019	-1.70391e-017	0	
1.00713e-018	-1.69813e-017	0	
1.32839e-018	-1.6898e-017	0	
1.70302e-018	-1.67798e-017	0	
2.15495e-018	-1.66205e-017	0	
2.69258e-018	-1.64168e-017	0	
3.26908e-018	-1.61261e-017	0	
3.79203e-018	-1.58542e-017	0	
4.27648e-018	-1.55321e-017	0	
4.70505e-018	-1.52899e-017	0	
5.10017e-018	-1.52251e-017	0	
7.26778e-018	-1.03185e-017	0	
8.43891e-018	-5.86124e-018	0	
-7.54515e-018	-1.63793e-018	0	
1.83329e-017	-3.3705e-018	0	
2.80917e-017	-7.04366e-018	0	
4.31108e-017	-1.70501e-017	0	
1.23043e-016	-6.72982e-017	0	
-3.95338e-006	-3.45482e-006	0	
-2.21811e-006	-2.44698e-006	0	
-1.44978e-006	-1.9219e-006	0	
-9.95099e-007	-1.75783e-006	0	
-4.49852e-007	-1.81449e-006	0	
-2.10903e-007	-2.16644e-006	0	
-2.09994e-007	-2.15284e-006	0	
-1.66572e-007	-2.2944e-006	0	
-1.70298e-007	-2.39624e-006	0	
-1.57851e-007	-2.44999e-006	0	
-1.39933e-007	-2.49919e-006	0	
-1.1751e-007	-2.54458e-006	0	
-9.44182e-008	-2.58466e-006	0	
-7.59977e-008	-2.61468e-006	0	
-6.10226e-008	-2.63645e-006	0	
-4.83007e-008	-2.65223e-006	0	
-3.7147e-008	-2.66342e-006	0	
-2.70653e-008	-2.67112e-006	0	
-1.76951e-008	-2.6761e-006	0	
-8.74814e-009	-2.67888e-006	0	
-2.39548e-014	-2.67977e-006	0	
8.74809e-009	-2.67888e-006	0	
1.76951e-008	-2.6761e-006	0	
2.70653e-008	-2.67112e-006	0	
3.71469e-008	-2.66342e-006	0	
4.83006e-008	-2.65223e-006	0	
6.10225e-008	-2.63645e-006	0	
7.59977e-008	-2.61468e-006	0	
9.44182e-008	-2.58466e-006	0	
1.1751e-007	-2.54458e-006	0	
1.39933e-007	-2.49919e-006	0	
1.57851e-007	-2.44999e-006	0	
1.70298e-007	-2.39624e-006	0	
1.66572e-007	-2.2944e-006	0	
2.09994e-007	-2.15284e-006	0	
2.10903e-007	-2.16644e-006	0	
4.49852e-007	-1.81449e-006	0	
9.95099e-007	-1.75783e-006	0	
1.44978e-006	-1.9219e-006	0	
2.21811e-006	-2.44698e-006	0	
3.95338e-006	-3.45482e-006	0	
-6.61764e-006	-6.1426e-006	0	
-4.42642e-006	-5.17156e-006	0	
-3.06258e-006	-4.52481e-006	0	
-2.09455e-006	-4.20871e-006	0	
-1.35629e-006	-4.08406e-006	0	
-4.49437e-007	-4.14025e-006	0	
-4.95608e-008	-4.55354e-006	0	
-2.57863e-007	-4.64761e-006	0	
-2.43105e-007	-4.81522e-006	0	
-2.66725e-007	-4.92822e-006	0	
-2.27569e-007	-5.03537e-006	0	
-1.79472e-007	-5.13496e-006	0	
-1.45801e-007	-5.20576e-006	0	
-1.19712e-007	-5.25782e-006	0	
-9.81244e-008	-5.29618e-006	0	
-7.91544e-008	-5.32407e-006	0	
-6.19083e-008	-5.34398e-006	0	
-4.57572e-008	-5.35772e-006	0	
-3.02409e-008	-5.36665e-006	0	
-1.50535e-008	-5.37166e-006	0	
-4.10131e-014	-5.37328e-006	0	
1.50534e-008	-5.37166e-006	0	
3.02408e-008	-5.36665e-006	0	
4.57571e-008	-5.35772e-006	0	
6.19082e-008	-5.34398e-006	0	
7.91543e-008	-5.32407e-006	0	
9.81243e-008	-5.29618e-006	0	
1.19712e-007	-5.25782e-006	0	
1.45801e-007	-5.20576e-006	0	
1.79471e-007	-5.13496e-006	0	
2.27569e-007	-5.03537e-006	0	
2.66725e-007	-4.92822e-006	0	
2.43105e-007	-4.81522e-006	0	
2.57862e-007	-4.64761e-006	0	
4.95607e-008	-4.55354e-006	0	
4.49437e-007	-4.14025e-006	0	
1.35629e-006	-4.08406e-006	0	
2.09455e-006	-4.20871e-006	0	
3.06258e-006	-4.52481e-006	0	
4.42642e-006	-5.17156e-006	0	
6.61764e-006	-6.1426e-006	0	
-8.88761e-006	-8.85723e-006	0	
-6.4777e-006	-7.9899e-006	0	
-4.58312e-006	-7.30375e-006	0	
-3.24713e-006	-6.90033e-006	0	
-2.26758e-006	-6.74076e-006	0	
-1.2418e-006	-6.76482e-006	0	
-1.55863e-007	-6.80903e-006	0	
-1.68025e-007	-6.99671e-006	0	
-3.10767e-007	-7.23331e-006	0	
-3.10459e-007	-7.45134e-006	0	
-2.45744e-007	-7.63153e-006	0	
-1.96755e-007	-7.76647e-006	0	
-1.67458e-007	-7.85644e-006	0	
-1.4185e-007	-7.92471e-006	0	
-1.19087e-007	-7.97554e-006	0	
-9.82073e-008	-8.0127e-006	0	
-7.83035e-008	-8.03942e-006	0	
-5.87852e-008	-8.05802e-006	0	
-3.92938e-008	-8.07023e-006	0	
-1.96956e-008	-8.07715e-006	0	
-5.0237e-014	-8.07939e-006	0	
1.96955e-008	-8.07715e-006	0	
3.92937e-008	-8.07023e-006	0	
5.87851e-008	-8.05802e-006	0	
7.83034e-008	-8.03942e-006	0	
9.82071e-008	-8.0127e-006	0	
1.19087e-007	-7.97554e-006	0	
1.41849e-007	-7.92471e-006	0	
1.67458e-007	-7.85644e-006	0	
1.96755e-007	-7.76647e-006	0	
2.45744e-007	-7.63153e-006	0	
3.10459e-007	-7.45134e-006	0	
3.10767e-007	-7.23331e-006	0	
1.68024e-007	-6.99671e-006	0	
1.55863e-007	-6.80903e-006	0	
1.2418e-006	-6.76482e-006	0	
2.26758e-006	-6.74076e-006	0	
3.24713e-006	-6.90033e-006	0	
4.58312e-006	-7.30375e-006	0	
6.4777e-006	-7.9899e-006	0	
8.88761e-006	-8.85723e-006	0	
-1.08918e-005	-1.16446e-005	0	
-8.29996e-006	-1.08733e-005	0	
-6.10448e-006	-1.02367e-005	0	
-4.55807e-006	-9.83021e-006	0	
-3.18958e-006	-9.60634e-006	0	
-2.08507e-006	-9.50857e-006	0	
-9.18448e-007	-9.61835e-006	0	
-1.50339e-007	-9.87892e-006	0	
-6.90772e-007	-9.52602e-006	0	
-2.77737e-007	-1.01067e-005	0	
-2.02325e-007	-1.03104e-005	0	
-1.91406e-007	-1.04204e-005	0	
-1.67471e-007	-1.05317e-005	0	
-1.47204e-007	-1.06113e-005	0	
-1.27365e-007	-1.06713e-005	0	
-1.07976e-007	-1.07157e-005	0	
-8.80773e-008	-1.07478e-005	0	
-6.72549e-008	-1.07706e-005	0	
-4.54846e-008	-1.07857e-005	0	
-2.29484e-008	-1.07944e-005	0	
-5.18625e-014	-1.07972e-005	0	
2.29483e-008	-1.07944e-005	0	
4.54845e-008	-1.07857e-005	0	
6.72548e-008	-1.07706e-005	0	
8.80771e-008	-1.07478e-005	0	
1.07975e-007	-1.07157e-005	0	
1.27365e-007	-1.06713e-005	0	
1.47204e-007	-1.06113e-005	0	
1.67471e-007	-1.05317e-005	0	
1.91405e-007	-1.04204e-005	0	
2.02325e-007	-1.03104e-005	0	
2.77737e-007	-1.01067e-005	0	
6.90772e-007	-9.52602e-006	0	
1.50339e-007	-9.87892e-006	0	
9.18448e-007	-9.61835e-006	0	
2.08507e-006	-9.50857e-006	0	
3.18958e-006	-9.60634e-006	0	
4.55807e-006	-9.83021e-006	0	
6.10448e-006	-1.02367e-005	0	
8.29996e-006	-1.08733e-005	0	
1.08918e-005	-1.16446e-005	0	
-1.2683e-005	-1.45082e-005	0	
-9.96609e-006	-1.38021e-005	0	
-7.57398e-006	-1.31784e-005	0	
-5.68102e-006	-1.26861e-005	0	
-4.09162e-006	-1.24279e-005	0	
-2.9135e-006	-1.23525e-005	0	
-1.76803e-006	-1.23151e-005	0	
-5.15769e-007	-1.23954e-005	0	
-1.82683e-007	-1.29824e-005	0	
-2.70093e-007	-1.2876e-005	0	
-1.90306e-007	-1.29522e-005	0	
-1.73919e-007	-1.31184e-005	0	
-1.55275e-007	-1.3226e-005	0	
-1.40956e-007	-1.33148e-005	0	
-1.27195e-007	-1.33812e-005	0	
-1.11456e-007	-1.34309e-005	0	
-9.3175e-008	-1.34679e-005	0	
-7.23843e-008	-1.34944e-005	0	
-4.9464e-008	-1.35124e-005	0	
-2.50878e-008	-1.35229e-005	0	
-4.80262e-014	-1.35263e-005	0	
2.50877e-008	-1.35229e-005	0	
4.94639e-008	-1.35124e-005	0	
7.23842e-008	-1.34944e-005	0	
9.31749e-008	-1.34679e-005	0	
1.11456e-007	-1.34309e-005	0	
1.27194e-007	-1.33812e-005	0	
1.40956e-007	-1.33148e-005	0	
1.55274e-007	-1.3226e-005	0	
1.73919e-007	-1.31184e-005	0	
1.90306e-007	-1.29522e-005	0	
2.70093e-007	-1.2876e-005	0	
1.82682e-007	-1.29824e-005	0	
5.15769e-007	-1.23954e-005	0	
1.76803e-006	-1.23151e-005	0	
2.9135e-006	-1.23525e-005	0	
4.09162e-006	-1.24279e-005	0	
5.68102e-006	-1.26861e-005	0	
7.57398e-006	-1.31784e-005	0	
9.96609e-006	-1.38021e-005	0	
1.2683e-005	-1.45082e-005	0	
-1.43316e-005	-1.74276e-005	0	
-1.15079e-005	-1.67706e-005	0	
-8.98559e-006	-1.61888e-005	0	
-6.88703e-006	-1.56943e-005	0	
-5.12341e-006	-1.53559e-005	0	
-3.744e-006	-1.52163e-005	0	
-2.56872e-006	-1.51863e-005	0	
-1.33577e-006	-1.52137e-005	0	
-1.25518e-007	-1.525e-005	0	
-1.92442e-007	-1.54828e-005	0	
-1.6379e-007	-1.56823e-005	0	
-1.41159e-007	-1.58274e-005	0	
-1.34694e-007	-1.59414e-005	0	
-1.29504e-007	-1.60329e-005	0	
-1.22781e-007	-1.61029e-005	0	
-1.11258e-007	-1.61575e-005	0	
-9.53066e-008	-1.61988e-005	0	
-7.51489e-008	-1.62292e-005	0	
-5.17265e-008	-1.62502e-005	0	
-2.63246e-008	-1.62625e-005	0	
-4.18586e-014	-1.62665e-005	0	
2.63246e-008	-1.62625e-005	0	
5.17264e-008	-1.62502e-005	0	
7.51489e-008	-1.62292e-005	0	
9.53065e-008	-1.61988e-005	0	
1.11258e-007	-1.61575e-005	0	
1.22781e-007	-1.61029e-005	0	
1.29504e-007	-1.60329e-005	0	
1.34694e-007	-1.59414e-005	0	
1.41159e-007	-1.58274e-005	0	
1.6379e-007	-1.56823e-005	0	
1.92442e-007	-1.54828e-005	0	
1.25518e-007	-1.525e-005	0	
1.33577e-006	-1.52137e-005	0	
2.56872e-006	-1.51863e-005	0	
3.744e-006	-1.52163e-005	0	
5.12341e-006	-1.53559e-005	0	
6.88703e-006	-1.56943e-005	0	
8.98559e-006	-1.61888e-005	0	
1.15079e-005	-1.67706e-005	0	
1.43316e-005	-1.74276e-005	0	
-1.5876e-005	-2.04286e-005	0	
-1.29354e-005	-1.97892e-005	0	
-1.03527e-005	-1.91815e-005	0	
-8.12188e-006	-1.867e-005	0	
-6.13106e-006	-1.83091e-005	0	
-4.61706e-006	-1.81567e-005	0	
-3.35983e-006	-1.81027e-005	0	
-2.16259e-006	-1.80824e-005	0	
-8.17753e-007	-1.8158e-005	0	
-8.16896e-008	-1.84754e-005	0	
-1.30871e-007	-1.83914e-005	0	
-9.86309e-008	-1.85493e-005	0	
-1.11121e-007	-1.86739e-005	0	
-1.19136e-007	-1.87604e-005	0	
-1.16519e-007	-1.88367e-005	0	
-1.09743e-007	-1.88949e-005	0	
-9.58597e-008	-1.89407e-005	0	
-7.62173e-008	-1.89754e-005	0	
-5.27055e-008	-1.89993e-005	0	
-2.68966e-008	-1.90132e-005	0	
-3.64178e-014	-1.90177e-005	0	
2.68965e-008	-1.90132e-005	0	
5.27054e-008	-1.89993e-005	0	
7.62172e-008	-1.89754e-005	0	
9.58596e-008	-1.89407e-005	0	
1.09743e-007	-1.88949e-005	0	
1.16519e-007	-1.88367e-005	0	
1.19136e-007	-1.87604e-005	0	
1.11121e-007	-1.86739e-005	0	
9.86306e-008	-1.85493e-005	0	
1.30871e-007	-1.83914e-005	0	
8.16895e-008	-1.84754e-005	0	
8.17753e-007	-1.8158e-005	0	
2.16259e-006	-1.80824e-005	0	
3.35983e-006	-1.81027e-005	0	
4.61706e-006	-1.81567e-005	0	
6.13106e-006	-1.83091e-005	0	
8.12188e-006	-1.867e-005	0	
1.03527e-005	-1.91815e-005	0	
1.29354e-005	-1.97892e-005	0	
1.5876e-005	-2.04286e-005	0	
-1.73665e-005	-2.35072e-005	0	
-1.44435e-005	-2.28484e-005	0	
-1.18256e-005	-2.221e-005	0	
-9.38111e-006	-2.16693e-005	0	
-7.11478e-006	-2.12562e-005	0	
-5.4693e-006	-2.10912e-005	0	
-4.14896e-006	-2.10502e-005	0	
-2.94399e-006	-2.10283e-005	0	
-1.70748e-006	-2.09901e-005	0	
-2.75815e-007	-2.09424e-005	0	
8.87965e-009	-2.12835e-005	0	
-7.0041e-008	-2.12869e-005	0	
-9.25805e-008	-2.14013e-005	0	
-1.06567e-007	-2.15047e-005	0	
-1.12379e-007	-2.15802e-005	0	
-1.0835e-007	-2.16437e-005	0	
-9.54227e-008	-2.1695e-005	0	
-7.61198e-008	-2.17337e-005	0	
-5.29565e-008	-2.17601e-005	0	
-2.71907e-008	-2.17754e-005	0	
-3.36478e-014	-2.17804e-005	0	
2.71906e-008	-2.17754e-005	0	
5.29564e-008	-2.17601e-005	0	
7.61197e-008	-2.17337e-005	0	
9.54227e-008	-2.1695e-005	0	
1.0835e-007	-2.16437e-005	0	
1.12379e-007	-2.15802e-005	0	
1.06567e-007	-2.15047e-005	0	
9.25803e-008	-2.14013e-005	0	
7.00407e-008	-2.12869e-005	0	
-8.88028e-009	-2.12835e-005	0	
2.75815e-007	-2.09424e-005	0	
1.70748e-006	-2.09901e-005	0	
2.94399e-006	-2.10283e-005	0	
4.14896e-006	-2.10502e-005	0	
5.4693e-006	-2.10912e-005	0	
7.11478e-006	-2.12562e-005	0	
9.38111e-006	-2.16693e-005	0	
1.18256e-005	-2.221e-005	0	
1.44435e-005	-2.28484e-005	0	
1.73665e-005	-2.35072e-005	0	
-1.89914e-005	-2.66079e-005	0	
-1.60102e-005	-2.59287e-005	0	
-1.32627e-005	-2.53027e-005	0	
-1.06714e-005	-2.474e-005	0	
-8.13804e-006	-2.42605e-005	0	
-6.28364e-006	-2.40125e-005	0	
-4.92047e-006	-2.39836e-005	0	
-3.7088e-006	-2.39503e-005	0	
-2.58155e-006	-2.39623e-005	0	
-1.10058e-006	-2.40081e-005	0	
-1.48539e-007	-2.41904e-005	0	
-1.09998e-007	-2.40277e-005	0	
-7.81021e-008	-2.4165e-005	0	
-9.89996e-008	-2.42588e-005	0	
-1.12713e-007	-2.43334e-005	0	
-1.06609e-007	-2.44068e-005	0	
-9.40709e-008	-2.44631e-005	0	
-7.5653e-008	-2.4505e-005	0	
-5.33689e-008	-2.45333e-005	0	
-2.76923e-008	-2.45498e-005	0	
-3.36289e-014	-2.45553e-005	0	
2.76922e-008	-2.45498e-005	0	
5.33688e-008	-2.45333e-005	0	
7.5653e-008	-2.4505e-005	0	
9.40709e-008	-2.44631e-005	0	
1.06609e-007	-2.44068e-005	0	
1.12713e-007	-2.43334e-005	0	
9.89994e-008	-2.42588e-005	0	
7.81019e-008	-2.4165e-005	0	
1.09998e-007	-2.40277e-005	0	
1.48538e-007	-2.41904e-005	0	
1.10058e-006	-2.40081e-005	0	
2.58155e-006	-2.39623e-005	0	
3.7088e-006	-2.39503e-005	0	
4.92047e-006	-2.39836e-005	0	
6.28364e-006	-2.40125e-005	0	
8.13804e-006	-2.42605e-005	0	
1.06714e-005	-2.474e-005	0	
1.32627e-005	-2.53027e-005	0	
1.60102e-005	-2.59287e-005	0	
1.89914e-005	-2.66079e-005	0	
-2.05881e-005	-2.9748e-005	0	
-1.75224e-005	-2.90923e-005	0	
-1.46776e-005	-2.84753e-005	0	
-1.1976e-005	-2.78983e-005	0	
-9.29997e-006	-2.73739e-005	0	
-7.01558e-006	-2.69177e-005	0	
-5.69986e-006	-2.68631e-005	0	
-4.46299e-006	-2.68329e-005	0	
-3.3455e-006	-2.68132e-005	0	
-1.86037e-006	-2.67662e-005	0	
-6.56538e-007	-2.68332e-005	0	
-4.783e-008	-2.7133e-005	0	
-1.22903e-007	-2.69273e-005	0	
-1.11274e-007	-2.70069e-005	0	
-1.12877e-007	-2.71109e-005	0	
-1.05087e-007	-2.7185e-005	0	
-9.21615e-008	-2.72464e-005	0	
-7.6556e-008	-2.72892e-005	0	
-5.48857e-008	-2.73193e-005	0	
-2.86204e-008	-2.73376e-005	0	
-3.4404e-014	-2.73438e-005	0	
2.86203e-008	-2.73376e-005	0	
5.48856e-008	-2.73193e-005	0	
7.65559e-008	-2.72892e-005	0	
9.21614e-008	-2.72464e-005	0	
1.05087e-007	-2.7185e-005	0	
1.12877e-007	-2.71109e-005	0	
1.11274e-007	-2.70069e-005	0	
1.22903e-007	-2.69273e-005	0	
4.78297e-008	-2.7133e-005	0	
6.56538e-007	-2.68332e-005	0	
1.86037e-006	-2.67662e-005	0	
3.3455e-006	-2.68132e-005	0	
4.46299e-006	-2.68329e-005	0	
5.69986e-006	-2.68631e-005	0	
7.01558e-006	-2.69177e-005	0	
9.29997e-006	-2.73739e-005	0	
1.1976e-005	-2.78983e-005	0	
1.46776e-005	-2.84753e-005	0	
1.75224e-005	-2.90923e-005	0	
2.05881e-005	-2.9748e-005	0	
-2.21319e-005	-3.29714e-005	0	
-1.8989e-005	-3.23355e-005	0	
-1.60756e-005	-3.17282e-005	0	
-1.3281e-005	-3.11538e-005	0	
-1.05506e-005	-3.05927e-005	0	
-7.77249e-006	-2.99575e-005	0	
-6.51659e-006	-2.96314e-005	0	
-5.24644e-006	-2.96792e-005	0	
-4.01254e-006	-2.9601e-005	0	
-2.60835e-006	-2.95382e-005	0	
-1.48855e-006	-2.96032e-005	0	
-2.18068e-007	-2.96148e-005	0	
-1.36871e-007	-2.97553e-005	0	
-1.28572e-007	-2.98047e-005	0	
-1.06358e-007	-2.99039e-005	0	
-1.01145e-007	-2.99836e-005	0	
-9.47091e-008	-3.00417e-005	0	
-8.05629e-008	-3.00864e-005	0	
-5.75611e-008	-3.01198e-005	0	
-2.96295e-008	-3.01405e-005	0	
-3.26944e-014	-3.01475e-005	0	
2.96295e-008	-3.01405e-005	0	
5.7561e-008	-3.01198e-005	0	
8.05628e-008	-3.00864e-005	0	
9.4709e-008	-3.00417e-005	0	
1.01145e-007	-2.99836e-005	0	
1.06358e-007	-2.99039e-005	0	
1.28572e-007	-2.98047e-005	0	
1.3687e-007	-2.97553e-005	0	
2.18067e-007	-2.96148e-005	0	
1.48855e-006	-2.96032e-005	0	
2.60835e-006	-2.95382e-005	0	
4.01254e-006	-2.9601e-005	0	
5.24644e-006	-2.96792e-005	0	
6.51659e-006	-2.96314e-005	0	
7.77249e-006	-2.99575e-005	0	
1.05506e-005	-3.05927e-005	0	
1.3281e-005	-3.11538e-005	0	
1.60756e-005	-3.17282e-005	0	
1.8989e-005	-3.23355e-005	0	
2.21319e-005	-3.29714e-005	0	
-2.36223e-005	-3.62777e-005	0	
-2.04156e-005	-3.56619e-005	0	
-1.74243e-005	-3.50632e-005	0	
-1.45632e-005	-3.44901e-005	0	
-1.17858e-005	-3.39472e-005	0	
-8.84643e-006	-3.34444e-005	0	
-7.26739e-006	-3.2437e-005	0	
-6.09251e-006	-3.24777e-005	0	
-4.75748e-006	-3.25408e-005	0	
-3.4751e-006	-3.24767e-005	0	
-2.27632e-006	-3.24415e-005	0	
-1.01796e-006	-3.25633e-005	0	
-2.42236e-007	-3.28372e-005	0	
-1.77742e-007	-3.26146e-005	0	
-9.99847e-008	-3.27214e-005	0	
-1.03752e-007	-3.27952e-005	0	
-1.05136e-007	-3.28467e-005	0	
-8.70761e-008	-3.28993e-005	0	
-6.03964e-008	-3.29367e-005	0	
-3.01503e-008	-3.29598e-005	0	
-2.53683e-014	-3.29674e-005	0	
3.01502e-008	-3.29598e-005	0	
6.03964e-008	-3.29367e-005	0	
8.7076e-008	-3.28993e-005	0	
1.05136e-007	-3.28467e-005	0	
1.03752e-007	-3.27952e-005	0	
9.99846e-008	-3.27214e-005	0	
1.77742e-007	-3.26146e-005	0	
2.42236e-007	-3.28372e-005	0	
1.01796e-006	-3.25633e-005	0	
2.27632e-006	-3.24415e-005	0	
3.4751e-006	-3.24767e-005	0	
4.75748e-006	-3.25408e-005	0	
6.09251e-006	-3.24777e-005	0	
7.26739e-006	-3.2437e-005	0	
8.84643e-006	-3.34444e-005	0	
1.17858e-005	-3.39472e-005	0	
1.45632e-005	-3.44901e-005	0	
1.74243e-005	-3.50632e-005	0	
2.04156e-005	-3.56619e-005	0	
2.36223e-005	-3.62777e-005	0	
-2.50518e-005	-3.96561e-005	0	
-2.18008e-005	-3.90637e-005	0	
-1.8774e-005	-3.84816e-005	0	
-1.5869e-005	-3.79101e-005	0	
-1.30203e-005	-3.73666e-005	0	
-9.97195e-006	-3.68524e-005	0	
-8.11608e-006	-3.56967e-005	0	
-6.96975e-006	-3.54638e-005	0	
-5.56353e-006	-3.54373e-005	0	
-4.28345e-006	-3.53868e-005	0	
-3.05299e-006	-3.53316e-005	0	
-1.86648e-006	-3.53003e-005	0	
-6.09883e-007	-3.53672e-005	0	
-3.03097e-008	-3.57146e-005	0	
-1.36382e-007	-3.55256e-005	0	
-1.19088e-007	-3.55872e-005	0	
-1.18291e-007	-3.5673e-005	0	
-9.37066e-008	-3.57292e-005	0	
-6.15184e-008	-3.57732e-005	0	
-3.08128e-008	-3.57968e-005	0	
-1.1231e-014	-3.58041e-005	0	
3.08127e-008	-3.57968e-005	0	
6.15183e-008	-3.57732e-005	0	
9.37066e-008	-3.57292e-005	0	
1.18291e-007	-3.5673e-005	0	
1.19088e-007	-3.55872e-005	0	
1.36382e-007	-3.55256e-005	0	
3.03096e-008	-3.57146e-005	0	
6.09883e-007	-3.53672e-005	0	
1.86648e-006	-3.53003e-005	0	
3.05299e-006	-3.53316e-005	0	
4.28345e-006	-3.53868e-005	0	
5.56353e-006	-3.54373e-005	0	
6.96975e-006	-3.54638e-005	0	
8.11608e-006	-3.56967e-005	0	
9.97195e-006	-3.68524e-005	0	
1.30203e-005	-3.73666e-005	0	
1.5869e-005	-3.79101e-005	0	
1.8774e-005	-3.84816e-005	0	
2.18008e-005	-3.90637e-005	0	
2.50518e-005	-3.96561e-005	0	
-2.64182e-005	-4.30809e-005	0	
-2.31478e-005	-4.25095e-005	0	
-2.01054e-005	-4.19393e-005	0	
-1.71689e-005	-4.13789e-005	0	
-1.42705e-005	-4.08385e-005	0	
-1.11583e-005	-4.03147e-005	0	
-9.41057e-006	-3.94769e-005	0	
-7.43068e-006	-3.81497e-005	0	
-6.46008e-006	-3.82504e-005	0	
-5.08775e-006	-3.828e-005	0	
-3.84489e-006	-3.82174e-005	0	
-2.64426e-006	-3.81732e-005	0	
-1.41873e-006	-3.82027e-005	0	
-1.79306e-007	-3.82309e-005	0	
-1.32965e-007	-3.83525e-005	0	
-1.19149e-007	-3.8409e-005	0	
-1.26012e-007	-3.85043e-005	0	
-9.35187e-008	-3.85846e-005	0	
-6.36984e-008	-3.863e-005	0	
-3.35912e-008	-3.86522e-005	0	
7.04619e-015	-3.86592e-005	0	
3.35912e-008	-3.86522e-005	0	
6.36984e-008	-3.863e-005	0	
9.35187e-008	-3.85846e-005	0	
1.26012e-007	-3.85043e-005	0	
1.19149e-007	-3.8409e-005	0	
1.32965e-007	-3.83525e-005	0	
1.79306e-007	-3.82309e-005	0	
1.41873e-006	-3.82027e-005	0	
2.64426e-006	-3.81732e-005	0	
3.84489e-006	-3.82174e-005	0	
5.08775e-006	-3.828e-005	0	
6.46008e-006	-3.82504e-005	0	
7.43068e-006	-3.81497e-005	0	
9.41057e-006	-3.94769e-005	0	
1.11583e-005	-4.03147e-005	0	
1.42705e-005	-4.08385e-005	0	
1.71689e-005	-4.13789e-005	0	
2.01054e-005	-4.19393e-005	0	
2.31478e-005	-4.25095e-005	0	
2.64182e-005	-4.30809e-005	0	
-2.77233e-005	-4.65265e-005	0	
-2.44612e-005	-4.5975e-005	0	
-2.14196e-005	-4.54154e-005	0	
-1.84626e-005	-4.48651e-005	0	
-1.55357e-005	-4.43344e-005	0	
-1.24389e-005	-4.3811e-005	0	
-1.07129e-005	-4.32151e-005	0	
-8.53408e-006	-4.19816e-005	0	
-7.26802e-006	-4.11762e-005	0	
-5.94866e-006	-4.1125e-005	0	
-4.63613e-006	-4.11079e-005	0	
-3.40644e-006	-4.10508e-005	0	
-2.21056e-006	-4.10326e-005	0	
-9.48906e-007	-4.11622e-005	0	
-1.84502e-007	-4.14487e-005	0	
-1.53375e-007	-4.12744e-005	0	
-1.12912e-007	-4.14013e-005	0	
-9.06267e-008	-4.14658e-005	0	
-7.36789e-008	-4.15009e-005	0	
-3.97634e-008	-4.15277e-005	0	
2.56591e-014	-4.15339e-005	0	
3.97634e-008	-4.15277e-005	0	
7.3679e-008	-4.15009e-005	0	
9.06268e-008	-4.14658e-005	0	
1.12912e-007	-4.14013e-005	0	
1.53375e-007	-4.12744e-005	0	
1.84502e-007	-4.14487e-005	0	
9.48906e-007	-4.11622e-005	0	
2.21056e-006	-4.10326e-005	0	
3.40644e-006	-4.10508e-005	0	
4.63613e-006	-4.11079e-005	0	
5.94866e-006	-4.1125e-005	0	
7.26802e-006	-4.11762e-005	0	
8.53408e-006	-4.19816e-005	0	
1.07129e-005	-4.32151e-005	0	
1.24389e-005	-4.3811e-005	0	
1.55357e-005	-4.43344e-005	0	
1.84626e-005	-4.48651e-005	0	
2.14196e-005	-4.54154e-005	0	
2.44612e-005	-4.5975e-005	0	
2.77233e-005	-4.65265e-005	0	
-2.89706e-005	-4.99701e-005	0	
-2.57461e-005	-4.94361e-005	0	