# vtk DataFile Version 4.1
vtk output
ASCII
DATASET UNSTRUCTURED_GRID

POINTS	7401	float
0	0	0	
0	1	0	
0	2	0	
0	3	0	
0	4	0	
0	5	0	
0	6	0	
0	7	0	
0	8	0	
0	9	0	
0	10	0	
0	11	0	
0	12	0	
0	13	0	
0	14	0	
0	15	0	
0	16	0	
0	17	0	
0	18	0	
0	19	0	
0	20	0	
0	21	0	
0	22	0	
0	23	0	
0	24	0	
0	25	0	
0	26	0	
0	27	0	
0	28	0	
0	29	0	
0	30	0	
0	31	0	
0	32	0	
0	33	0	
0	34	0	
0	35	0	
0	36	0	
0	37	0	
0	38	0	
0	39	0	
0	40	0	
1	0	0	
1	1	0	
1	2	0	
1	3	0	
1	4	0	
1	5	0	
1	6	0	
1	7	0	
1	8	0	
1	9	0	
1	10	0	
1	11	0	
1	12	0	
1	13	0	
1	14	0	
1	15	0	
1	16	0	
1	17	0	
1	18	0	
1	19	0	
1	20	0	
1	21	0	
1	22	0	
1	23	0	
1	24	0	
1	25	0	
1	26	0	
1	27	0	
1	28	0	
1	29	0	
1	30	0	
1	31	0	
1	32	0	
1	33	0	
1	34	0	
1	35	0	
1	36	0	
1	37	0	
1	38	0	
1	39	0	
1	40	0	
2	0	0	
2	1	0	
2	2	0	
2	3	0	
2	4	0	
2	5	0	
2	6	0	
2	7	0	
2	8	0	
2	9	0	
2	10	0	
2	11	0	
2	12	0	
2	13	0	
2	14	0	
2	15	0	
2	16	0	
2	17	0	
2	18	0	
2	19	0	
2	20	0	
2	21	0	
2	22	0	
2	23	0	
2	24	0	
2	25	0	
2	26	0	
2	27	0	
2	28	0	
2	29	0	
2	30	0	
2	31	0	
2	32	0	
2	33	0	
2	34	0	
2	35	0	
2	36	0	
2	37	0	
2	38	0	
2	39	0	
2	40	0	
3	0	0	
3	1	0	
3	2	0	
3	3	0	
3	4	0	
3	5	0	
3	6	0	
3	7	0	
3	8	0	
3	9	0	
3	10	0	
3	11	0	
3	12	0	
3	13	0	
3	14	0	
3	15	0	
3	16	0	
3	17	0	
3	18	0	
3	19	0	
3	20	0	
3	21	0	
3	22	0	
3	23	0	
3	24	0	
3	25	0	
3	26	0	
3	27	0	
3	28	0	
3	29	0	
3	30	0	
3	31	0	
3	32	0	
3	33	0	
3	34	0	
3	35	0	
3	36	0	
3	37	0	
3	38	0	
3	39	0	
3	40	0	
4	0	0	
4	1	0	
4	2	0	
4	3	0	
4	4	0	
4	5	0	
4	6	0	
4	7	0	
4	8	0	
4	9	0	
4	10	0	
4	11	0	
4	12	0	
4	13	0	
4	14	0	
4	15	0	
4	16	0	
4	17	0	
4	18	0	
4	19	0	
4	20	0	
4	21	0	
4	22	0	
4	23	0	
4	24	0	
4	25	0	
4	26	0	
4	27	0	
4	28	0	
4	29	0	
4	30	0	
4	31	0	
4	32	0	
4	33	0	
4	34	0	
4	35	0	
4	36	0	
4	37	0	
4	38	0	
4	39	0	
4	40	0	
5	0	0	
5	1	0	
5	2	0	
5	3	0	
5	4	0	
5	5	0	
5	6	0	
5	7	0	
5	8	0	
5	9	0	
5	10	0	
5	11	0	
5	12	0	
5	13	0	
5	14	0	
5	15	0	
5	16	0	
5	17	0	
5	18	0	
5	19	0	
5	20	0	
5	21	0	
5	22	0	
5	23	0	
5	24	0	
5	25	0	
5	26	0	
5	27	0	
5	28	0	
5	29	0	
5	30	0	
5	31	0	
5	32	0	
5	33	0	
5	34	0	
5	35	0	
5	36	0	
5	37	0	
5	38	0	
5	39	0	
5	40	0	
6	0	0	
6	1	0	
6	2	0	
6	3	0	
6	4	0	
6	5	0	
6	6	0	
6	7	0	
6	8	0	
6	9	0	
6	10	0	
6	11	0	
6	12	0	
6	13	0	
6	14	0	
6	15	0	
6	16	0	
6	17	0	
6	18	0	
6	19	0	
6	20	0	
6	21	0	
6	22	0	
6	23	0	
6	24	0	
6	25	0	
6	26	0	
6	27	0	
6	28	0	
6	29	0	
6	30	0	
6	31	0	
6	32	0	
6	33	0	
6	34	0	
6	35	0	
6	36	0	
6	37	0	
6	38	0	
6	39	0	
6	40	0	
7	0	0	
7	1	0	
7	2	0	
7	3	0	
7	4	0	
7	5	0	
7	6	0	
7	7	0	
7	8	0	
7	9	0	
7	10	0	
7	11	0	
7	12	0	
7	13	0	
7	14	0	
7	15	0	
7	16	0	
7	17	0	
7	18	0	
7	19	0	
7	20	0	
7	21	0	
7	22	0	
7	23	0	
7	24	0	
7	25	0	
7	26	0	
7	27	0	
7	28	0	
7	29	0	
7	30	0	
7	31	0	
7	32	0	
7	33	0	
7	34	0	
7	35	0	
7	36	0	
7	37	0	
7	38	0	
7	39	0	
7	40	0	
8	0	0	
8	1	0	
8	2	0	
8	3	0	
8	4	0	
8	5	0	
8	6	0	
8	7	0	
8	8	0	
8	9	0	
8	10	0	
8	11	0	
8	12	0	
8	13	0	
8	14	0	
8	15	0	
8	16	0	
8	17	0	
8	18	0	
8	19	0	
8	20	0	
8	21	0	
8	22	0	
8	23	0	
8	24	0	
8	25	0	
8	26	0	
8	27	0	
8	28	0	
8	29	0	
8	30	0	
8	31	0	
8	32	0	
8	33	0	
8	34	0	
8	35	0	
8	36	0	
8	37	0	
8	38	0	
8	39	0	
8	40	0	
9	0	0	
9	1	0	
9	2	0	
9	3	0	
9	4	0	
9	5	0	
9	6	0	
9	7	0	
9	8	0	
9	9	0	
9	10	0	
9	11	0	
9	12	0	
9	13	0	
9	14	0	
9	15	0	
9	16	0	
9	17	0	
9	18	0	
9	19	0	
9	20	0	
9	21	0	
9	22	0	
9	23	0	
9	24	0	
9	25	0	
9	26	0	
9	27	0	
9	28	0	
9	29	0	
9	30	0	
9	31	0	
9	32	0	
9	33	0	
9	34	0	
9	35	0	
9	36	0	
9	37	0	
9	38	0	
9	39	0	
9	40	0	
10	0	0	
10	1	0	
10	2	0	
10	3	0	
10	4	0	
10	5	0	
10	6	0	
10	7	0	
10	8	0	
10	9	0	
10	10	0	
10	11	0	
10	12	0	
10	13	0	
10	14	0	
10	15	0	
10	16	0	
10	17	0	
10	18	0	
10	19	0	
10	20	0	
10	21	0	
10	22	0	
10	23	0	
10	24	0	
10	25	0	
10	26	0	
10	27	0	
10	28	0	
10	29	0	
10	30	0	
10	31	0	
10	32	0	
10	33	0	
10	34	0	
10	35	0	
10	36	0	
10	37	0	
10	38	0	
10	39	0	
10	40	0	
11	0	0	
11	1	0	
11	2	0	
11	3	0	
11	4	0	
11	5	0	
11	6	0	
11	7	0	
11	8	0	
11	9	0	
11	10	0	
11	11	0	
11	12	0	
11	13	0	
11	14	0	
11	15	0	
11	16	0	
11	17	0	
11	18	0	
11	19	0	
11	20	0	
11	21	0	
11	22	0	
11	23	0	
11	24	0	
11	25	0	
11	26	0	
11	27	0	
11	28	0	
11	29	0	
11	30	0	
11	31	0	
11	32	0	
11	33	0	
11	34	0	
11	35	0	
11	36	0	
11	37	0	
11	38	0	
11	39	0	
11	40	0	
12	0	0	
12	1	0	
12	2	0	
12	3	0	
12	4	0	
12	5	0	
12	6	0	
12	7	0	
12	8	0	
12	9	0	
12	10	0	
12	11	0	
12	12	0	
12	13	0	
12	14	0	
12	15	0	
12	16	0	
12	17	0	
12	18	0	
12	19	0	
12	20	0	
12	21	0	
12	22	0	
12	23	0	
12	24	0	
12	25	0	
12	26	0	
12	27	0	
12	28	0	
12	29	0	
12	30	0	
12	31	0	
12	32	0	
12	33	0	
12	34	0	
12	35	0	
12	36	0	
12	37	0	
12	38	0	
12	39	0	
12	40	0	
13	0	0	
13	1	0	
13	2	0	
13	3	0	
13	4	0	
13	5	0	
13	6	0	
13	7	0	
13	8	0	
13	9	0	
13	10	0	
13	11	0	
13	12	0	
13	13	0	
13	14	0	
13	15	0	
13	16	0	
13	17	0	
13	18	0	
13	19	0	
13	20	0	
13	21	0	
13	22	0	
13	23	0	
13	24	0	
13	25	0	
13	26	0	
13	27	0	
13	28	0	
13	29	0	
13	30	0	
13	31	0	
13	32	0	
13	33	0	
13	34	0	
13	35	0	
13	36	0	
13	37	0	
13	38	0	
13	39	0	
13	40	0	
14	0	0	
14	1	0	
14	2	0	
14	3	0	
14	4	0	
14	5	0	
14	6	0	
14	7	0	
14	8	0	
14	9	0	
14	10	0	
14	11	0	
14	12	0	
14	13	0	
14	14	0	
14	15	0	
14	16	0	
14	17	0	
14	18	0	
14	19	0	
14	20	0	
14	21	0	
14	22	0	
14	23	0	
14	24	0	
14	25	0	
14	26	0	
14	27	0	
14	28	0	
14	29	0	
14	30	0	
14	31	0	
14	32	0	
14	33	0	
14	34	0	
14	35	0	
14	36	0	
14	37	0	
14	38	0	
14	39	0	
14	40	0	
15	0	0	
15	1	0	
15	2	0	
15	3	0	
15	4	0	
15	5	0	
15	6	0	
15	7	0	
15	8	0	
15	9	0	
15	10	0	
15	11	0	
15	12	0	
15	13	0	
15	14	0	
15	15	0	
15	16	0	
15	17	0	
15	18	0	
15	19	0	
15	20	0	
15	21	0	
15	22	0	
15	23	0	
15	24	0	
15	25	0	
15	26	0	
15	27	0	
15	28	0	
15	29	0	
15	30	0	
15	31	0	
15	32	0	
15	33	0	
15	34	0	
15	35	0	
15	36	0	
15	37	0	
15	38	0	
15	39	0	
15	40	0	
16	0	0	
16	1	0	
16	2	0	
16	3	0	
16	4	0	
16	5	0	
16	6	0	
16	7	0	
16	8	0	
16	9	0	
16	10	0	
16	11	0	
16	12	0	
16	13	0	
16	14	0	
16	15	0	
16	16	0	
16	17	0	
16	18	0	
16	19	0	
16	20	0	
16	21	0	
16	22	0	
16	23	0	
16	24	0	
16	25	0	
16	26	0	
16	27	0	
16	28	0	
16	29	0	
16	30	0	
16	31	0	
16	32	0	
16	33	0	
16	34	0	
16	35	0	
16	36	0	
16	37	0	
16	38	0	
16	39	0	
16	40	0	
17	0	0	
17	1	0	
17	2	0	
17	3	0	
17	4	0	
17	5	0	
17	6	0	
17	7	0	
17	8	0	
17	9	0	
17	10	0	
17	11	0	
17	12	0	
17	13	0	
17	14	0	
17	15	0	
17	16	0	
17	17	0	
17	18	0	
17	19	0	
17	20	0	
17	21	0	
17	22	0	
17	23	0	
17	24	0	
17	25	0	
17	26	0	
17	27	0	
17	28	0	
17	29	0	
17	30	0	
17	31	0	
17	32	0	
17	33	0	
17	34	0	
17	35	0	
17	36	0	
17	37	0	
17	38	0	
17	39	0	
17	40	0	
18	0	0	
18	1	0	
18	2	0	
18	3	0	
18	4	0	
18	5	0	
18	6	0	
18	7	0	
18	8	0	
18	9	0	
18	10	0	
18	11	0	
18	12	0	
18	13	0	
18	14	0	
18	15	0	
18	16	0	
18	17	0	
18	18	0	
18	19	0	
18	20	0	
18	21	0	
18	22	0	
18	23	0	
18	24	0	
18	25	0	
18	26	0	
18	27	0	
18	28	0	
18	29	0	
18	30	0	
18	31	0	
18	32	0	
18	33	0	
18	34	0	
18	35	0	
18	36	0	
18	37	0	
18	38	0	
18	39	0	
18	40	0	
19	0	0	
19	1	0	
19	2	0	
19	3	0	
19	4	0	
19	5	0	
19	6	0	
19	7	0	
19	8	0	
19	9	0	
19	10	0	
19	11	0	
19	12	0	
19	13	0	
19	14	0	
19	15	0	
19	16	0	
19	17	0	
19	18	0	
19	19	0	
19	20	0	
19	21	0	
19	22	0	
19	23	0	
19	24	0	
19	25	0	
19	26	0	
19	27	0	
19	28	0	
19	29	0	
19	30	0	
19	31	0	
19	32	0	
19	33	0	
19	34	0	
19	35	0	
19	36	0	
19	37	0	
19	38	0	
19	39	0	
19	40	0	
20	0	0	
20	1	0	
20	2	0	
20	3	0	
20	4	0	
20	5	0	
20	6	0	
20	7	0	
20	8	0	
20	9	0	
20	10	0	
20	11	0	
20	12	0	
20	13	0	
20	14	0	
20	15	0	
20	16	0	
20	17	0	
20	18	0	
20	19	0	
20	20	0	
20	21	0	
20	22	0	
20	23	0	
20	24	0	
20	25	0	
20	26	0	
20	27	0	
20	28	0	
20	29	0	
20	30	0	
20	31	0	
20	32	0	
20	33	0	
20	34	0	
20	35	0	
20	36	0	
20	37	0	
20	38	0	
20	39	0	
20	40	0	
21	0	0	
21	1	0	
21	2	0	
21	3	0	
21	4	0	
21	5	0	
21	6	0	
21	7	0	
21	8	0	
21	9	0	
21	10	0	
21	11	0	
21	12	0	
21	13	0	
21	14	0	
21	15	0	
21	16	0	
21	17	0	
21	18	0	
21	19	0	
21	20	0	
21	21	0	
21	22	0	
21	23	0	
21	24	0	
21	25	0	
21	26	0	
21	27	0	
21	28	0	
21	29	0	
21	30	0	
21	31	0	
21	32	0	
21	33	0	
21	34	0	
21	35	0	
21	36	0	
21	37	0	
21	38	0	
21	39	0	
21	40	0	
22	0	0	
22	1	0	
22	2	0	
22	3	0	
22	4	0	
22	5	0	
22	6	0	
22	7	0	
22	8	0	
22	9	0	
22	10	0	
22	11	0	
22	12	0	
22	13	0	
22	14	0	
22	15	0	
22	16	0	
22	17	0	
22	18	0	
22	19	0	
22	20	0	
22	21	0	
22	22	0	
22	23	0	
22	24	0	
22	25	0	
22	26	0	
22	27	0	
22	28	0	
22	29	0	
22	30	0	
22	31	0	
22	32	0	
22	33	0	
22	34	0	
22	35	0	
22	36	0	
22	37	0	
22	38	0	
22	39	0	
22	40	0	
23	0	0	
23	1	0	
23	2	0	
23	3	0	
23	4	0	
23	5	0	
23	6	0	
23	7	0	
23	8	0	
23	9	0	
23	10	0	
23	11	0	
23	12	0	
23	13	0	
23	14	0	
23	15	0	
23	16	0	
23	17	0	
23	18	0	
23	19	0	
23	20	0	
23	21	0	
23	22	0	
23	23	0	
23	24	0	
23	25	0	
23	26	0	
23	27	0	
23	28	0	
23	29	0	
23	30	0	
23	31	0	
23	32	0	
23	33	0	
23	34	0	
23	35	0	
23	36	0	
23	37	0	
23	38	0	
23	39	0	
23	40	0	
24	0	0	
24	1	0	
24	2	0	
24	3	0	
24	4	0	
24	5	0	
24	6	0	
24	7	0	
24	8	0	
24	9	0	
24	10	0	
24	11	0	
24	12	0	
24	13	0	
24	14	0	
24	15	0	
24	16	0	
24	17	0	
24	18	0	
24	19	0	
24	20	0	
24	21	0	
24	22	0	
24	23	0	
24	24	0	
24	25	0	
24	26	0	
24	27	0	
24	28	0	
24	29	0	
24	30	0	
24	31	0	
24	32	0	
24	33	0	
24	34	0	
24	35	0	
24	36	0	
24	37	0	
24	38	0	
24	39	0	
24	40	0	
25	0	0	
25	1	0	
25	2	0	
25	3	0	
25	4	0	
25	5	0	
25	6	0	
25	7	0	
25	8	0	
25	9	0	
25	10	0	
25	11	0	
25	12	0	
25	13	0	
25	14	0	
25	15	0	
25	16	0	
25	17	0	
25	18	0	
25	19	0	
25	20	0	
25	21	0	
25	22	0	
25	23	0	
25	24	0	
25	25	0	
25	26	0	
25	27	0	
25	28	0	
25	29	0	
25	30	0	
25	31	0	
25	32	0	
25	33	0	
25	34	0	
25	35	0	
25	36	0	
25	37	0	
25	38	0	
25	39	0	
25	40	0	
26	0	0	
26	1	0	
26	2	0	
26	3	0	
26	4	0	
26	5	0	
26	6	0	
26	7	0	
26	8	0	
26	9	0	
26	10	0	
26	11	0	
26	12	0	
26	13	0	
26	14	0	
26	15	0	
26	16	0	
26	17	0	
26	18	0	
26	19	0	
26	20	0	
26	21	0	
26	22	0	
26	23	0	
26	24	0	
26	25	0	
26	26	0	
26	27	0	
26	28	0	
26	29	0	
26	30	0	
26	31	0	
26	32	0	
26	33	0	
26	34	0	
26	35	0	
26	36	0	
26	37	0	
26	38	0	
26	39	0	
26	40	0	
27	0	0	
27	1	0	
27	2	0	
27	3	0	
27	4	0	
27	5	0	
27	6	0	
27	7	0	
27	8	0	
27	9	0	
27	10	0	
27	11	0	
27	12	0	
27	13	0	
27	14	0	
27	15	0	
27	16	0	
27	17	0	
27	18	0	
27	19	0	
27	20	0	
27	21	0	
27	22	0	
27	23	0	
27	24	0	
27	25	0	
27	26	0	
27	27	0	
27	28	0	
27	29	0	
27	30	0	
27	31	0	
27	32	0	
27	33	0	
27	34	0	
27	35	0	
27	36	0	
27	37	0	
27	38	0	
27	39	0	
27	40	0	
28	0	0	
28	1	0	
28	2	0	
28	3	0	
28	4	0	
28	5	0	
28	6	0	
28	7	0	
28	8	0	
28	9	0	
28	10	0	
28	11	0	
28	12	0	
28	13	0	
28	14	0	
28	15	0	
28	16	0	
28	17	0	
28	18	0	
28	19	0	
28	20	0	
28	21	0	
28	22	0	
28	23	0	
28	24	0	
28	25	0	
28	26	0	
28	27	0	
28	28	0	
28	29	0	
28	30	0	
[...]
POINT_DATA	7401
VECTORS d float
-7.25424e-017	-3.99664e-017	0	
-2.79798e-017	-1.04983e-017	0	
-2.247e-017	-5.14733e-018	0	
-1.97748e-017	-4.02535e-018	0	
-1.72844e-017	-2.97901e-018	0	
-1.17199e-017	2.31244e-018	0	
-1.77361e-017	-5.46481e-019	0	
-1.44164e-017	-2.12237e-018	0	
-1.16206e-017	-2.32035e-018	0	
-9.53485e-018	-2.72432e-018	0	
-7.9281e-018	-3.10405e-018	0	
-6.63037e-018	-3.42629e-018	0	
-5.54344e-018	-3.70466e-018	0	
-4.60818e-018	-3.94048e-018	0	
-3.78521e-018	-4.13903e-018	0	
-3.04586e-018	-4.30301e-018	0	
-2.3685e-018	-4.43474e-018	0	
-1.73733e-018	-4.53575e-018	0	
-1.1385e-018	-4.60721e-018	0	
-5.60616e-019	-4.65004e-018	0	
7.55381e-021	-4.66439e-018	0	
5.75619e-019	-4.65075e-018	0	
1.15303e-018	-4.60864e-018	0	
1.75127e-018	-4.53782e-018	0	
2.38162e-018	-4.43743e-018	0	
3.05777e-018	-4.30622e-018	0	
3.79571e-018	-4.14268e-018	0	
4.61727e-018	-3.94443e-018	0	
5.55081e-018	-3.70875e-018	0	
6.63592e-018	-3.43037e-018	0	
7.93177e-018	-3.10798e-018	0	
9.53663e-018	-2.72798e-018	0	
1.16204e-017	-2.3236e-018	0	
1.44142e-017	-2.12507e-018	0	
1.7732e-017	-5.4847e-019	0	
1.1714e-017	2.30995e-018	0	
1.72801e-017	-2.97952e-018	0	
1.97704e-017	-4.02536e-018	0	
2.24653e-017	-5.147e-018	0	
2.79744e-017	-1.04969e-017	0	
7.25308e-017	-3.996e-017	0	
-2.30129e-006	-1.96644e-006	0	
-1.43126e-006	-1.35394e-006	0	
-1.09347e-006	-9.9143e-007	0	
-9.38361e-007	-8.05061e-007	0	
-8.27954e-007	-6.39166e-007	0	
-6.1815e-007	-4.53813e-007	0	
-7.86253e-007	-4.58561e-007	0	
-6.30242e-007	-4.67569e-007	0	
-5.03214e-007	-4.92909e-007	0	
-4.08559e-007	-5.28976e-007	0	
-3.38174e-007	-5.67001e-007	0	
-2.81822e-007	-6.02914e-007	0	
-2.34967e-007	-6.35847e-007	0	
-1.94899e-007	-6.65132e-007	0	
-1.59803e-007	-6.90524e-007	0	
-1.28398e-007	-7.11948e-007	0	
-9.97354e-008	-7.29409e-007	0	
-7.30864e-008	-7.42944e-007	0	
-4.78541e-008	-7.52592e-007	0	
-2.35276e-008	-7.58387e-007	0	
3.54955e-010	-7.60348e-007	0	
2.42312e-008	-7.58485e-007	0	
4.8539e-008	-7.52786e-007	0	
7.37402e-008	-7.43228e-007	0	
1.00346e-007	-7.29775e-007	0	
1.28953e-007	-7.12384e-007	0	
1.60292e-007	-6.91016e-007	0	
1.95313e-007	-6.65661e-007	0	
2.35298e-007	-6.36393e-007	0	
2.82065e-007	-6.03455e-007	0	
3.38326e-007	-5.67514e-007	0	
4.08617e-007	-5.29442e-007	0	
5.03177e-007	-4.93309e-007	0	
6.3011e-007	-4.67885e-007	0	
7.86025e-007	-4.58774e-007	0	
6.17909e-007	-4.53925e-007	0	
8.27742e-007	-6.39204e-007	0	
9.38148e-007	-8.05045e-007	0	
1.09324e-006	-9.9136e-007	0	
1.43098e-006	-1.35379e-006	0	
2.30091e-006	-1.96617e-006	0	
-3.87336e-006	-3.25737e-006	0	
-2.88908e-006	-2.63757e-006	0	
-2.30975e-006	-2.15358e-006	0	
-1.95417e-006	-1.82032e-006	0	
-1.7206e-006	-1.60087e-006	0	
-1.64865e-006	-1.48844e-006	0	
-1.69531e-006	-1.40957e-006	0	
-1.27695e-006	-1.24219e-006	0	
-9.88099e-007	-1.22694e-006	0	
-7.99373e-007	-1.25366e-006	0	
-6.56892e-007	-1.29367e-006	0	
-5.44069e-007	-1.34086e-006	0	
-4.51493e-007	-1.38852e-006	0	
-3.73166e-007	-1.43342e-006	0	
-3.05113e-007	-1.47381e-006	0	
-2.44603e-007	-1.50875e-006	0	
-1.89662e-007	-1.53774e-006	0	
-1.3879e-007	-1.56048e-006	0	
-9.07692e-008	-1.57683e-006	0	
-4.4568e-008	-1.5867e-006	0	
7.42443e-010	-1.59005e-006	0	
4.60397e-008	-1.58687e-006	0	
9.22006e-008	-1.57717e-006	0	
1.40154e-007	-1.56098e-006	0	
1.90933e-007	-1.53838e-006	0	
2.45755e-007	-1.50951e-006	0	
3.06121e-007	-1.47467e-006	0	
3.74011e-007	-1.43434e-006	0	
4.52156e-007	-1.38946e-006	0	
5.4454e-007	-1.34177e-006	0	
6.57166e-007	-1.29452e-006	0	
7.99448e-007	-1.2544e-006	0	
9.87975e-007	-1.22755e-006	0	
1.27661e-006	-1.24262e-006	0	
1.69476e-006	-1.4098e-006	0	
1.64814e-006	-1.48856e-006	0	
1.72016e-006	-1.6009e-006	0	
1.95371e-006	-1.82026e-006	0	
2.30925e-006	-2.15343e-006	0	
2.88849e-006	-2.63731e-006	0	
3.87267e-006	-3.25697e-006	0	
-5.28852e-006	-4.41185e-006	0	
-4.2889e-006	-3.83083e-006	0	
-3.54157e-006	-3.3178e-006	0	
-3.00503e-006	-2.91068e-006	0	
-2.62429e-006	-2.59637e-006	0	
-2.42058e-006	-2.36584e-006	0	
-2.29121e-006	-2.30221e-006	0	
-1.94992e-006	-2.23248e-006	0	
-1.48081e-006	-2.14807e-006	0	
-1.18877e-006	-2.13325e-006	0	
-9.67729e-007	-2.16106e-006	0	
-7.96288e-007	-2.20474e-006	0	
-6.57321e-007	-2.25453e-006	0	
-5.41022e-007	-2.30449e-006	0	
-4.40846e-007	-2.35132e-006	0	
-3.52428e-007	-2.39301e-006	0	
-2.72657e-007	-2.42829e-006	0	
-1.99173e-007	-2.45635e-006	0	
-1.30081e-007	-2.47672e-006	0	
-6.37803e-008	-2.48908e-006	0	
1.15642e-009	-2.49329e-006	0	
6.60721e-008	-2.4893e-006	0	
1.3231e-007	-2.47716e-006	0	
2.01295e-007	-2.457e-006	0	
2.7463e-007	-2.42912e-006	0	
3.5421e-007	-2.394e-006	0	
4.42397e-007	-2.35243e-006	0	
5.42308e-007	-2.30567e-006	0	
6.58314e-007	-2.25572e-006	0	
7.96968e-007	-2.2059e-006	0	
9.68087e-007	-2.1621e-006	0	
1.1888e-006	-2.13412e-006	0	
1.48053e-006	-2.1487e-006	0	
1.94928e-006	-2.23283e-006	0	
2.29046e-006	-2.30241e-006	0	
2.41988e-006	-2.36594e-006	0	
2.62361e-006	-2.59636e-006	0	
3.00432e-006	-2.91055e-006	0	
3.54079e-006	-3.31755e-006	0	
4.28801e-006	-3.83045e-006	0	
5.28752e-006	-4.41134e-006	0	
-6.6257e-006	-5.52815e-006	0	
-5.58572e-006	-4.98042e-006	0	
-4.73285e-006	-4.47616e-006	0	
-4.05888e-006	-4.04299e-006	0	
-3.53725e-006	-3.68958e-006	0	
-3.14418e-006	-3.42056e-006	0	
-2.80415e-006	-3.23989e-006	0	
-2.28431e-006	-3.14024e-006	0	
-1.95833e-006	-3.11966e-006	0	
-1.56517e-006	-3.12248e-006	0	
-1.27132e-006	-3.14319e-006	0	
-1.04185e-006	-3.17925e-006	0	
-8.56645e-007	-3.22477e-006	0	
-7.02491e-007	-3.27324e-006	0	
-5.70512e-007	-3.32062e-006	0	
-4.54771e-007	-3.36407e-006	0	
-3.51003e-007	-3.40159e-006	0	
-2.5593e-007	-3.43186e-006	0	
-1.66911e-007	-3.45402e-006	0	
-8.17252e-008	-3.46755e-006	0	
1.59207e-009	-3.47218e-006	0	
8.48803e-008	-3.46781e-006	0	
1.69978e-007	-3.45454e-006	0	
2.58849e-007	-3.43262e-006	0	
3.53714e-007	-3.40256e-006	0	
4.57212e-007	-3.36521e-006	0	
5.72626e-007	-3.3219e-006	0	
7.04227e-007	-3.2746e-006	0	
8.57959e-007	-3.22613e-006	0	
1.04272e-006	-3.18053e-006	0	
1.27172e-006	-3.14432e-006	0	
1.56512e-006	-3.12337e-006	0	
1.95782e-006	-3.12023e-006	0	
2.28349e-006	-3.14048e-006	0	
2.80326e-006	-3.24001e-006	0	
3.14328e-006	-3.42057e-006	0	
3.53633e-006	-3.68946e-006	0	
4.05791e-006	-4.04274e-006	0	
4.73179e-006	-4.47578e-006	0	
5.58453e-006	-4.97991e-006	0	
6.62436e-006	-5.52751e-006	0	
-7.89803e-006	-6.66684e-006	0	
-6.81063e-006	-6.14455e-006	0	
-5.87258e-006	-5.65795e-006	0	
-5.0843e-006	-5.22628e-006	0	
-4.42823e-006	-4.8647e-006	0	
-3.87428e-006	-4.58455e-006	0	
-3.36791e-006	-4.40042e-006	0	
-2.8748e-006	-4.32012e-006	0	
-2.41734e-006	-4.27818e-006	0	
-1.92216e-006	-4.214e-006	0	
-1.56339e-006	-4.21881e-006	0	
-1.27938e-006	-4.24878e-006	0	
-1.05045e-006	-4.28781e-006	0	
-8.59214e-007	-4.33196e-006	0	
-6.95894e-007	-4.37677e-006	0	
-5.53328e-007	-4.41896e-006	0	
-4.26182e-007	-4.45605e-006	0	
-3.10238e-007	-4.48631e-006	0	
-2.02076e-007	-4.50862e-006	0	
-9.88217e-008	-4.52231e-006	0	
2.04551e-009	-4.527e-006	0	
1.02875e-007	-4.52258e-006	0	
2.06017e-007	-4.50917e-006	0	
3.13989e-007	-4.48712e-006	0	
4.29663e-007	-4.45709e-006	0	
5.56458e-007	-4.4202e-006	0	
6.98592e-007	-4.37814e-006	0	
8.61408e-007	-4.33341e-006	0	
1.05208e-006	-4.28925e-006	0	
1.28041e-006	-4.25012e-006	0	
1.56378e-006	-4.21993e-006	0	
1.92195e-006	-4.2148e-006	0	
2.4165e-006	-4.27857e-006	0	
2.87377e-006	-4.32028e-006	0	
3.36685e-006	-4.40043e-006	0	
3.87317e-006	-4.58442e-006	0	
4.42708e-006	-4.86442e-006	0	
5.08308e-006	-5.22585e-006	0	
5.87125e-006	-5.65739e-006	0	
6.80915e-006	-6.14387e-006	0	
7.89636e-006	-6.66602e-006	0	
-9.11802e-006	-7.84622e-006	0	
-7.97476e-006	-7.34667e-006	0	
-6.95899e-006	-6.88018e-006	0	
-6.06937e-006	-6.46097e-006	0	
-5.29207e-006	-6.10227e-006	0	
-4.60126e-006	-5.81438e-006	0	
-3.96324e-006	-5.59634e-006	0	
-3.36641e-006	-5.42751e-006	0	
-2.65973e-006	-5.33394e-006	0	
-2.25446e-006	-5.33995e-006	0	
-1.83475e-006	-5.37064e-006	0	
-1.50632e-006	-5.39892e-006	0	
-1.23735e-006	-5.43239e-006	0	
-1.01077e-006	-5.47213e-006	0	
-8.17151e-007	-5.5137e-006	0	
-6.4863e-007	-5.55343e-006	0	
-4.98871e-007	-5.58864e-006	0	
-3.62749e-007	-5.61752e-006	0	
-2.36076e-007	-5.63888e-006	0	
-1.15342e-007	-5.652e-006	0	
2.51278e-009	-5.65651e-006	0	
1.20323e-007	-5.65228e-006	0	
2.40922e-007	-5.63943e-006	0	
3.67365e-007	-5.61834e-006	0	
5.03156e-007	-5.5897e-006	0	
6.52479e-007	-5.55469e-006	0	
8.20458e-007	-5.51512e-006	0	
1.01343e-006	-5.47362e-006	0	
1.23929e-006	-5.43386e-006	0	
1.50748e-006	-5.40025e-006	0	
1.8351e-006	-5.37171e-006	0	
2.254e-006	-5.34062e-006	0	
2.65868e-006	-5.33413e-006	0	
3.36522e-006	-5.42755e-006	0	
3.96197e-006	-5.59621e-006	0	
4.59993e-006	-5.81407e-006	0	
5.29067e-006	-6.10177e-006	0	
6.0679e-006	-6.4603e-006	0	
6.9574e-006	-6.87938e-006	0	
7.973e-006	-7.34574e-006	0	
9.11602e-006	-7.84517e-006	0	
-1.02893e-005	-9.07745e-006	0	
-9.08657e-006	-8.59851e-006	0	
-7.99648e-006	-8.15144e-006	0	
-7.01515e-006	-7.74676e-006	0	
-6.13072e-006	-7.39467e-006	0	
-5.32358e-006	-7.10247e-006	0	
-4.57161e-006	-6.87152e-006	0	
-3.84815e-006	-6.70877e-006	0	
-3.14255e-006	-6.63986e-006	0	
-2.53754e-006	-6.62987e-006	0	
-2.081e-006	-6.59885e-006	0	
-1.72196e-006	-6.61473e-006	0	
-1.4146e-006	-6.64784e-006	0	
-1.15501e-006	-6.6861e-006	0	
-9.33196e-007	-6.72557e-006	0	
-7.4032e-007	-6.76279e-006	0	
-5.69127e-007	-6.79557e-006	0	
-4.13701e-007	-6.82233e-006	0	
-2.69163e-007	-6.84205e-006	0	
-1.3144e-007	-6.85413e-006	0	
2.98962e-009	-6.85828e-006	0	
1.37369e-007	-6.85439e-006	0	
2.74938e-007	-6.84257e-006	0	
4.19212e-007	-6.82311e-006	0	
5.74252e-007	-6.7966e-006	0	
7.44926e-007	-6.76402e-006	0	
9.37145e-007	-6.72697e-006	0	
1.15817e-006	-6.68759e-006	0	
1.41685e-006	-6.64929e-006	0	
1.72323e-006	-6.61601e-006	0	
2.08126e-006	-6.5998e-006	0	
2.53667e-006	-6.63035e-006	0	
3.14128e-006	-6.64001e-006	0	
3.84675e-006	-6.70869e-006	0	
4.5701e-006	-6.87121e-006	0	
5.32198e-006	-7.10191e-006	0	
6.12907e-006	-7.39389e-006	0	
7.01343e-006	-7.74578e-006	0	
7.99465e-006	-8.15031e-006	0	
9.08456e-006	-8.59726e-006	0	
1.02869e-005	-9.07609e-006	0	
-1.14149e-005	-1.0364e-005	0	
-1.01519e-005	-9.90399e-006	0	
-8.99033e-006	-9.47477e-006	0	
-7.9247e-006	-9.08449e-006	0	
-6.94475e-006	-8.74084e-006	0	
-6.03547e-006	-8.44901e-006	0	
-5.178e-006	-8.21093e-006	0	
-4.35155e-006	-8.01984e-006	0	
-3.5551e-006	-7.86547e-006	0	
-2.67702e-006	-7.78765e-006	0	
-2.30994e-006	-7.83776e-006	0	
-1.91662e-006	-7.8866e-006	0	
-1.57615e-006	-7.92805e-006	0	
-1.28908e-006	-7.96894e-006	0	
-1.04248e-006	-8.00752e-006	0	
-8.27646e-007	-8.04259e-006	0	
-6.36695e-007	-8.07278e-006	0	
-4.63107e-007	-8.097e-006	0	
-3.01445e-007	-8.11462e-006	0	
-1.47203e-007	-8.12533e-006	0	
3.47065e-009	-8.12898e-006	0	
1.54091e-007	-8.12555e-006	0	
3.08169e-007	-8.11508e-006	0	
4.69542e-007	-8.09769e-006	0	
6.42699e-007	-8.0737e-006	0	
8.33057e-007	-8.04374e-006	0	
1.04713e-006	-8.00884e-006	0	
1.29278e-006	-7.97037e-006	0	
1.57873e-006	-7.92947e-006	0	
1.91797e-006	-7.88782e-006	0	
2.31004e-006	-7.83857e-006	0	
2.67587e-006	-7.7879e-006	0	
3.55364e-006	-7.86551e-006	0	
4.34988e-006	-8.01962e-006	0	
5.17618e-006	-8.2104e-006	0	
6.03356e-006	-8.44816e-006	0	
6.94281e-006	-8.73969e-006	0	
7.92273e-006	-9.08311e-006	0	
8.98828e-006	-9.47322e-006	0	
1.01497e-005	-9.90233e-006	0	
1.14123e-005	-1.03623e-005	0	
-1.24978e-005	-1.17063e-005	0	
-1.11754e-005	-1.12636e-005	0	
-9.94519e-006	-1.08507e-005	0	
-8.8011e-006	-1.04742e-005	0	
-7.73429e-006	-1.01401e-005	0	
-6.73286e-006	-9.85281e-006	0	
-5.78234e-006	-9.61354e-006	0	
-4.8688e-006	-9.42242e-006	0	
-3.96181e-006	-9.27002e-006	0	
-2.94578e-006	-9.1529e-006	0	
-2.52258e-006	-9.16819e-006	0	
-2.08119e-006	-9.22806e-006	0	
-1.72006e-006	-9.27796e-006	0	
-1.41142e-006	-9.31804e-006	0	
-1.14392e-006	-9.35561e-006	0	
-9.09951e-007	-9.38865e-006	0	
-7.01328e-007	-9.41609e-006	0	
-5.10974e-007	-9.43742e-006	0	
-3.33027e-007	-9.45256e-006	0	
-1.62718e-007	-9.4616e-006	0	
3.94816e-009	-9.46465e-006	0	
1.70561e-007	-9.46176e-006	0	
3.40706e-007	-9.45289e-006	0	
5.18356e-007	-9.43795e-006	0	
7.08255e-007	-9.41683e-006	0	
9.16229e-007	-9.38962e-006	0	
1.14933e-006	-9.35679e-006	0	
1.41572e-006	-9.31937e-006	0	
1.72303e-006	-9.27932e-006	0	
2.08264e-006	-9.22927e-006	0	
2.52245e-006	-9.169e-006	0	
2.94439e-006	-9.15312e-006	0	
3.96012e-006	-9.27e-006	0	
4.8668e-006	-9.42206e-006	0	
5.78013e-006	-9.61276e-006	0	
6.73055e-006	-9.85159e-006	0	
7.73201e-006	-1.01385e-005	0	
8.79887e-006	-1.04723e-005	0	
9.94296e-006	-1.08486e-005	0	
1.11731e-005	-1.12615e-005	0	
1.2495e-005	-1.17041e-005	0	
-1.3541e-005	-1.31031e-005	0	
-1.2161e-005	-1.26764e-005	0	
-1.08648e-005	-1.22783e-005	0	
-9.64687e-006	-1.19147e-005	0	
-8.49948e-006	-1.15907e-005	0	
-7.4129e-006	-1.131e-005	0	
-6.37527e-006	-1.10754e-005	0	
-5.37302e-006	-1.08881e-005	0	
-4.38447e-006	-1.07543e-005	0	
-3.43758e-006	-1.06922e-005	0	
-2.68145e-006	-1.06895e-005	0	
-2.23221e-006	-1.06582e-005	0	
-1.85351e-006	-1.0688e-005	0	
-1.52226e-006	-1.07287e-005	0	
-1.23676e-006	-1.07658e-005	0	
-9.86862e-007	-1.07969e-005	0	
-7.63022e-007	-1.08213e-005	0	
-5.57482e-007	-1.08392e-005	0	
-3.64121e-007	-1.08514e-005	0	
-1.78121e-007	-1.08585e-005	0	
4.41105e-009	-1.08608e-005	0	
1.86896e-007	-1.08585e-005	0	
3.72747e-007	-1.08516e-005	0	
5.6583e-007	-1.08395e-005	0	
7.70919e-007	-1.08217e-005	0	
9.94086e-007	-1.07976e-005	0	
1.24304e-006	-1.07668e-005	0	
1.52728e-006	-1.07298e-005	0	
1.85696e-006	-1.06892e-005	0	
2.23381e-006	-1.06594e-005	0	
2.68088e-006	-1.06904e-005	0	
3.43604e-006	-1.06926e-005	0	
4.38245e-006	-1.07543e-005	0	
5.37055e-006	-1.08876e-005	0	
6.37253e-006	-1.10743e-005	0	
7.41009e-006	-1.13084e-005	0	
8.49678e-006	-1.15885e-005	0	
9.64436e-006	-1.19122e-005	0	
1.08625e-005	-1.22756e-005	0	
1.21585e-005	-1.26736e-005	0	
1.35382e-005	-1.31003e-005	0	
-1.45478e-005	-1.45527e-005	0	
-1.31119e-005	-1.41406e-005	0	
-1.17524e-005	-1.3756e-005	0	
-1.04643e-005	-1.34044e-005	0	
-9.24124e-006	-1.309e-005	0	
-8.07517e-006	-1.28161e-005	0	
-6.95642e-006	-1.25842e-005	0	
-5.87368e-006	-1.23936e-005	0	
-4.81824e-006	-1.22337e-005	0	
-3.81059e-006	-1.20937e-005	0	
-2.7668e-006	-1.20254e-005	0	
-2.37482e-006	-1.20829e-005	0	
-1.96637e-006	-1.21476e-005	0	
-1.61766e-006	-1.21963e-005	0	
-1.32035e-006	-1.22348e-005	0	
-1.0585e-006	-1.22635e-005	0	
-8.22201e-007	-1.2284e-005	0	
-6.03124e-007	-1.22979e-005	0	
-3.95134e-007	-1.23066e-005	0	
-1.93644e-007	-1.23112e-005	0	
4.84411e-009	-1.23126e-005	0	
2.03299e-007	-1.23111e-005	0	
4.04676e-007	-1.23064e-005	0	
6.12439e-007	-1.22978e-005	0	
8.31117e-007	-1.22841e-005	0	
1.06677e-006	-1.22638e-005	0	
1.32763e-006	-1.22353e-005	0	
1.62354e-006	-1.21972e-005	0	
1.97042e-006	-1.21487e-005	0	
2.37667e-006	-1.20839e-005	0	
2.76598e-006	-1.20261e-005	0	
3.80894e-006	-1.20942e-005	0	
4.81577e-006	-1.22338e-005	0	
5.87056e-006	-1.23929e-005	0	
6.95296e-006	-1.25828e-005	0	
8.07171e-006	-1.28139e-005	0	
9.23804e-006	-1.30873e-005	0	
1.04615e-005	-1.34012e-005	0	
1.175e-005	-1.37526e-005	0	
1.31096e-005	-1.41371e-005	0	
1.45451e-005	-1.45494e-005	0	
-1.55214e-005	-1.60535e-005	0	
-1.40314e-005	-1.56545e-005	0	
-1.26108e-005	-1.52822e-005	0	
-1.12556e-005	-1.49416e-005	0	
-9.96088e-006	-1.46362e-005	0	
-8.72034e-006	-1.43687e-005	0	
-7.52693e-006	-1.41401e-005	0	
-6.3734e-006	-1.39485e-005	0	
-5.25609e-006	-1.37916e-005	0	
-4.15881e-006	-1.36612e-005	0	
-2.97652e-006	-1.35625e-005	0	
-2.48976e-006	-1.35945e-005	0	
-2.05023e-006	-1.36703e-005	0	
-1.69761e-006	-1.37251e-005	0	
-1.3952e-006	-1.37596e-005	0	
-1.1258e-006	-1.37843e-005	0	
-8.79859e-007	-1.37998e-005	0	
-6.48786e-007	-1.38086e-005	0	
-4.26707e-007	-1.38129e-005	0	
-2.09629e-007	-1.38148e-005	0	
5.22746e-009	-1.38152e-005	0	
2.20071e-007	-1.38145e-005	0	
4.37099e-007	-1.38125e-005	0	
6.59045e-007	-1.3808e-005	0	
8.89829e-007	-1.37992e-005	0	
1.13523e-006	-1.37839e-005	0	
1.40368e-006	-1.37596e-005	0	
1.7046e-006	-1.37256e-005	0	
2.05509e-006	-1.36712e-005	0	
2.49204e-006	-1.35956e-005	0	
2.97574e-006	-1.35634e-005	0	
4.15698e-006	-1.36619e-005	0	
5.25299e-006	-1.37917e-005	0	
6.36938e-006	-1.39476e-005	0	
7.52252e-006	-1.41382e-005	0	
8.71604e-006	-1.43659e-005	0	
9.95709e-006	-1.46327e-005	0	
1.12525e-005	-1.49376e-005	0	
1.26083e-005	-1.52781e-005	0	
1.40293e-005	-1.56503e-005	0	
1.55191e-005	-1.60495e-005	0	
-1.64652e-005	-1.76039e-005	0	
-1.49224e-005	-1.72168e-005	0	
-1.34424e-005	-1.68557e-005	0	
-1.20227e-005	-1.6525e-005	0	
-1.06596e-005	-1.62279e-005	0	
-9.34837e-006	-1.59668e-005	0	
-8.08398e-006	-1.57427e-005	0	
-6.86101e-006	-1.55558e-005	0	
-5.6738e-006	-1.54063e-005	0	
-4.50879e-006	-1.53016e-005	0	
-3.38775e-006	-1.52655e-005	0	
-2.51371e-006	-1.52915e-005	0	
-2.12055e-006	-1.52678e-005	0	
-1.77018e-006	-1.53011e-005	0	
-1.46326e-006	-1.53345e-005	0	
-1.19024e-006	-1.53544e-005	0	
-9.37529e-007	-1.53636e-005	0	
-6.95731e-007	-1.53661e-005	0	
-4.59684e-007	-1.53655e-005	0	
-2.26496e-007	-1.53642e-005	0	
5.537e-009	-1.53634e-005	0	
2.37587e-007	-1.53637e-005	0	
4.70812e-007	-1.53646e-005	0	
7.06868e-007	-1.53649e-005	0	
9.48561e-007	-1.53623e-005	0	
1.20093e-006	-1.53531e-005	0	
1.47317e-006	-1.53336e-005	0	
1.77866e-006	-1.53009e-005	0	
2.12666e-006	-1.52685e-005	0	
2.51652e-006	-1.52931e-005	0	
3.38771e-006	-1.5267e-005	0	
4.50663e-006	-1.53025e-005	0	
5.66976e-006	-1.54063e-005	0	
6.85574e-006	-1.55546e-005	0	
8.0783e-006	-1.57402e-005	0	
9.34303e-006	-1.59633e-005	0	
1.06551e-005	-1.62236e-005	0	
1.20193e-005	-1.65202e-005	0	
1.34401e-005	-1.68507e-005	0	
1.49208e-005	-1.72119e-005	0	
1.64636e-005	-1.75994e-005	0	
-1.73824e-005	-1.92032e-005	0	
-1.57875e-005	-1.88267e-005	0	
-1.42496e-005	-1.84757e-005	0	
-1.27674e-005	-1.8154e-005	0	
-1.13383e-005	-1.78645e-005	0	
-9.95925e-006	-1.76093e-005	0	
-8.62645e-006	-1.73896e-005	0	
-7.3357e-006	-1.72051e-005	0	
-6.08175e-006	-1.70548e-005	0	
-4.86166e-006	-1.69286e-005	0	
-3.69812e-006	-1.68155e-005	0	
-2.52949e-006	-1.67667e-005	0	
-2.18033e-006	-1.68419e-005	0	
-1.82226e-006	-1.69172e-005	0	
-1.52244e-006	-1.6955e-005	0	
-1.2541e-006	-1.69692e-005	0	
-9.97409e-007	-1.69703e-005	0	
-7.45504e-007	-1.69655e-005	0	
-4.9499e-007	-1.69593e-005	0	
-2.44683e-007	-1.69546e-005	0	
5.7466e-009	-1.69526e-005	0	
2.5623e-007	-1.69538e-005	0	
5.06684e-007	-1.69578e-005	0	
7.57394e-007	-1.69634e-005	0	
1.00945e-006	-1.69678e-005	0	
1.26612e-006	-1.69667e-005	0	
1.53403e-006	-1.69528e-005	0	
1.83271e-006	-1.69158e-005	0	
2.18837e-006	-1.68417e-005	0	
2.53297e-006	-1.67677e-005	0	
3.69878e-006	-1.68168e-005	0	
4.85899e-006	-1.69295e-005	0	
6.07637e-006	-1.70545e-005	0	
7.32873e-006	-1.72034e-005	0	
8.61916e-006	-1.73863e-005	0	
9.95267e-006	-1.76049e-005	0	
1.13331e-005	-1.78593e-005	0	
1.27638e-005	-1.81485e-005	0	
1.42476e-005	-1.84702e-005	0	
1.57866e-005	-1.88214e-005	0	
1.73819e-005	-1.91984e-005	0	
-1.82759e-005	-2.08511e-005	0	
-1.66292e-005	-2.04841e-005	0	
-1.50343e-005	-2.01422e-005	0	
-1.34911e-005	-1.98285e-005	0	
-1.19982e-005	-1.95457e-005	0	
-1.05535e-005	-1.92957e-005	0	
-9.15461e-006	-1.90796e-005	0	
-7.79925e-006	-1.88971e-005	0	
-6.48529e-006	-1.87462e-005	0	
-5.21406e-006	-1.86243e-005	0	
-3.97506e-006	-1.85225e-005	0	
-2.66826e-006	-1.84495e-005	0	
-2.1989e-006	-1.85082e-005	0	
-1.85155e-006	-1.85912e-005	0	
-1.57897e-006	-1.86241e-005	0	
-1.32186e-006	-1.86231e-005	0	
-1.06231e-006	-1.86138e-005	0	
-7.99606e-007	-1.86013e-005	0	
-5.33418e-007	-1.85898e-005	0	
-2.64543e-007	-1.85818e-005	0	
5.83138e-009	-1.85787e-005	0	
2.76299e-007	-1.85807e-005	0	
5.45444e-007	-1.85877e-005	0	
8.12045e-007	-1.85982e-005	0	
1.07523e-006	-1.861e-005	0	
1.33519e-006	-1.8619e-005	0	
1.5924e-006	-1.86202e-005	0	
1.86439e-006	-1.85881e-005	0	
2.20991e-006	-1.85065e-005	0	
2.67358e-006	-1.84499e-005	0	
3.97638e-006	-1.85234e-005	0	
5.21061e-006	-1.86248e-005	0	
6.47802e-006	-1.87453e-005	0	
7.79e-006	-1.88944e-005	0	
9.14532e-006	-1.90751e-005	0	
1.05456e-005	-1.92903e-005	0	
1.19923e-005	-1.95398e-005	0	
1.34875e-005	-1.98226e-005	0	
1.50328e-005	-2.01365e-005	0	
1.66293e-005	-2.04789e-005	0	
1.82771e-005	-2.08466e-005	0	
-1.91484e-005	-2.25482e-005	0	
-1.74496e-005	-2.21898e-005	0	
-1.57984e-005	-2.1856e-005	0	