# vtk DataFile Version 4.1
vtk output
ASCII
DATASET UNSTRUCTURED_GRID

POINTS	7401	float
0	0	0	
0	1	0	
0	2	0	
0	3	0	
0	4	0	
0	5	0	
0	6	0	
0	7	0	
0	8	0	
0	9	0	
0	10	0	
0	11	0	
0	12	0	
0	13	0	
0	14	0	
0	15	0	
0	16	0	
0	17	0	
0	18	0	
0	19	0	
0	20	0	
0	21	0	
0	22	0	
0	23	0	
0	24	0	
0	25	0	
0	26	0	
0	27	0	
0	28	0	
0	29	0	
0	30	0	
0	31	0	
0	32	0	
0	33	0	
0	34	0	
0	35	0	
0	36	0	
0	37	0	
0	38	0	
0	39	0	
0	40	0	
1	0	0	
1	1	0	
1	2	0	
1	3	0	
1	4	0	
1	5	0	
1	6	0	
1	7	0	
1	8	0	
1	9	0	
1	10	0	
1	11	0	
1	12	0	
1	13	0	
1	14	0	
1	15	0	
1	16	0	
1	17	0	
1	18	0	
1	19	0	
1	20	0	
1	21	0	
1	22	0	
1	23	0	
1	24	0	
1	25	0	
1	26	0	
1	27	0	
1	28	0	
1	29	0	
1	30	0	
1	31	0	
1	32	0	
1	33	0	
1	34	0	
1	35	0	
1	36	0	
1	37	0	
1	38	0	
1	39	0	
1	40	0	
2	0	0	
2	1	0	
2	2	0	
2	3	0	
2	4	0	
2	5	0	
2	6	0	
2	7	0	
2	8	0	
2	9	0	
2	10	0	
2	11	0	
2	12	0	
2	13	0	
2	14	0	
2	15	0	
2	16	0	
2	17	0	
2	18	0	
2	19	0	
2	20	0	
2	21	0	
2	22	0	
2	23	0	
2	24	0	
2	25	0	
2	26	0	
2	27	0	
2	28	0	
2	29	0	
2	30	0	
2	31	0	
2	32	0	
2	33	0	
2	34	0	
2	35	0	
2	36	0	
2	37	0	
2	38	0	
2	39	0	
2	40	0	
3	0	0	
3	1	0	
3	2	0	
3	3	0	
3	4	0	
3	5	0	
3	6	0	
3	7	0	
3	8	0	
3	9	0	
3	10	0	
3	11	0	
3	12	0	
3	13	0	
3	14	0	
3	15	0	
3	16	0	
3	17	0	
3	18	0	
3	19	0	
3	20	0	
3	21	0	
3	22	0	
3	23	0	
3	24	0	
3	25	0	
3	26	0	
3	27	0	
3	28	0	
3	29	0	
3	30	0	
3	31	0	
3	32	0	
3	33	0	
3	34	0	
3	35	0	
3	36	0	
3	37	0	
3	38	0	
3	39	0	
3	40	0	
4	0	0	
4	1	0	
4	2	0	
4	3	0	
4	4	0	
4	5	0	
4	6	0	
4	7	0	
4	8	0	
4	9	0	
4	10	0	
4	11	0	
4	12	0	
4	13	0	
4	14	0	
4	15	0	
4	16	0	
4	17	0	
4	18	0	
4	19	0	
4	20	0	
4	21	0	
4	22	0	
4	23	0	
4	24	0	
4	25	0	
4	26	0	
4	27	0	
4	28	0	
4	29	0	
4	30	0	
4	31	0	
4	32	0	
4	33	0	
4	34	0	
4	35	0	
4	36	0	
4	37	0	
4	38	0	
4	39	0	
4	40	0	
5	0	0	
5	1	0	
5	2	0	
5	3	0	
5	4	0	
5	5	0	
5	6	0	
5	7	0	
5	8	0	
5	9	0	
5	10	0	
5	11	0	
5	12	0	
5	13	0	
5	14	0	
5	15	0	
5	16	0	
5	17	0	
5	18	0	
5	19	0	
5	20	0	
5	21	0	
5	22	0	
5	23	0	
5	24	0	
5	25	0	
5	26	0	
5	27	0	
5	28	0	
5	29	0	
5	30	0	
5	31	0	
5	32	0	
5	33	0	
5	34	0	
5	35	0	
5	36	0	
5	37	0	
5	38	0	
5	39	0	
5	40	0	
6	0	0	
6	1	0	
6	2	0	
6	3	0	
6	4	0	
6	5	0	
6	6	0	
6	7	0	
6	8	0	
6	9	0	
6	10	0	
6	11	0	
6	12	0	
6	13	0	
6	14	0	
6	15	0	
6	16	0	
6	17	0	
6	18	0	
6	19	0	
6	20	0	
6	21	0	
6	22	0	
6	23	0	
6	24	0	
6	25	0	
6	26	0	
6	27	0	
6	28	0	
6	29	0	
6	30	0	
6	31	0	
6	32	0	
6	33	0	
6	34	0	
6	35	0	
6	36	0	
6	37	0	
6	38	0	
6	39	0	
6	40	0	
7	0	0	
7	1	0	
7	2	0	
7	3	0	
7	4	0	
7	5	0	
7	6	0	
7	7	0	
7	8	0	
7	9	0	
7	10	0	
7	11	0	
7	12	0	
7	13	0	
7	14	0	
7	15	0	
7	16	0	
7	17	0	
7	18	0	
7	19	0	
7	20	0	
7	21	0	
7	22	0	
7	23	0	
7	24	0	
7	25	0	
7	26	0	
7	27	0	
7	28	0	
7	29	0	
7	30	0	
7	31	0	
7	32	0	
7	33	0	
7	34	0	
7	35	0	
7	36	0	
7	37	0	
7	38	0	
7	39	0	
7	40	0	
8	0	0	
8	1	0	
8	2	0	
8	3	0	
8	4	0	
8	5	0	
8	6	0	
8	7	0	
8	8	0	
8	9	0	
8	10	0	
8	11	0	
8	12	0	
8	13	0	
8	14	0	
8	15	0	
8	16	0	
8	17	0	
8	18	0	
8	19	0	
8	20	0	
8	21	0	
8	22	0	
8	23	0	
8	24	0	
8	25	0	
8	26	0	
8	27	0	
8	28	0	
8	29	0	
8	30	0	
8	31	0	
8	32	0	
8	33	0	
8	34	0	
8	35	0	
8	36	0	
8	37	0	
8	38	0	
8	39	0	
8	40	0	
9	0	0	
9	1	0	
9	2	0	
9	3	0	
9	4	0	
9	5	0	
9	6	0	
9	7	0	
9	8	0	
9	9	0	
9	10	0	
9	11	0	
9	12	0	
9	13	0	
9	14	0	
9	15	0	
9	16	0	
9	17	0	
9	18	0	
9	19	0	
9	20	0	
9	21	0	
9	22	0	
9	23	0	
9	24	0	
9	25	0	
9	26	0	
9	27	0	
9	28	0	
9	29	0	
9	30	0	
9	31	0	
9	32	0	
9	33	0	
9	34	0	
9	35	0	
9	36	0	
9	37	0	
9	38	0	
9	39	0	
9	40	0	
10	0	0	
10	1	0	
10	2	0	
10	3	0	
10	4	0	
10	5	0	
10	6	0	
10	7	0	
10	8	0	
10	9	0	
10	10	0	
10	11	0	
10	12	0	
10	13	0	
10	14	0	
10	15	0	
10	16	0	
10	17	0	
10	18	0	
10	19	0	
10	20	0	
10	21	0	
10	22	0	
10	23	0	
10	24	0	
10	25	0	
10	26	0	
10	27	0	
10	28	0	
10	29	0	
10	30	0	
10	31	0	
10	32	0	
10	33	0	
10	34	0	
10	35	0	
10	36	0	
10	37	0	
10	38	0	
10	39	0	
10	40	0	
11	0	0	
11	1	0	
11	2	0	
11	3	0	
11	4	0	
11	5	0	
11	6	0	
11	7	0	
11	8	0	
11	9	0	
11	10	0	
11	11	0	
11	12	0	
11	13	0	
11	14	0	
11	15	0	
11	16	0	
11	17	0	
11	18	0	
11	19	0	
11	20	0	
11	21	0	
11	22	0	
11	23	0	
11	24	0	
11	25	0	
11	26	0	
11	27	0	
11	28	0	
11	29	0	
11	30	0	
11	31	0	
11	32	0	
11	33	0	
11	34	0	
11	35	0	
11	36	0	
11	37	0	
11	38	0	
11	39	0	
11	40	0	
12	0	0	
12	1	0	
12	2	0	
12	3	0	
12	4	0	
12	5	0	
12	6	0	
12	7	0	
12	8	0	
12	9	0	
12	10	0	
12	11	0	
12	12	0	
12	13	0	
12	14	0	
12	15	0	
12	16	0	
12	17	0	
12	18	0	
12	19	0	
12	20	0	
12	21	0	
12	22	0	
12	23	0	
12	24	0	
12	25	0	
12	26	0	
12	27	0	
12	28	0	
12	29	0	
12	30	0	
12	31	0	
12	32	0	
12	33	0	
12	34	0	
12	35	0	
12	36	0	
12	37	0	
12	38	0	
12	39	0	
12	40	0	
13	0	0	
13	1	0	
13	2	0	
13	3	0	
13	4	0	
13	5	0	
13	6	0	
13	7	0	
13	8	0	
13	9	0	
13	10	0	
13	11	0	
13	12	0	
13	13	0	
13	14	0	
13	15	0	
13	16	0	
13	17	0	
13	18	0	
13	19	0	
13	20	0	
13	21	0	
13	22	0	
13	23	0	
13	24	0	
13	25	0	
13	26	0	
13	27	0	
13	28	0	
13	29	0	
13	30	0	
13	31	0	
13	32	0	
13	33	0	
13	34	0	
13	35	0	
13	36	0	
13	37	0	
13	38	0	
13	39	0	
13	40	0	
14	0	0	
14	1	0	
14	2	0	
14	3	0	
14	4	0	
14	5	0	
14	6	0	
14	7	0	
14	8	0	
14	9	0	
14	10	0	
14	11	0	
14	12	0	
14	13	0	
14	14	0	
14	15	0	
14	16	0	
14	17	0	
14	18	0	
14	19	0	
14	20	0	
14	21	0	
14	22	0	
14	23	0	
14	24	0	
14	25	0	
14	26	0	
14	27	0	
14	28	0	
14	29	0	
14	30	0	
14	31	0	
14	32	0	
14	33	0	
14	34	0	
14	35	0	
14	36	0	
14	37	0	
14	38	0	
14	39	0	
14	40	0	
15	0	0	
15	1	0	
15	2	0	
15	3	0	
15	4	0	
15	5	0	
15	6	0	
15	7	0	
15	8	0	
15	9	0	
15	10	0	
15	11	0	
15	12	0	
15	13	0	
15	14	0	
15	15	0	
15	16	0	
15	17	0	
15	18	0	
15	19	0	
15	20	0	
15	21	0	
15	22	0	
15	23	0	
15	24	0	
15	25	0	
15	26	0	
15	27	0	
15	28	0	
15	29	0	
15	30	0	
15	31	0	
15	32	0	
15	33	0	
15	34	0	
15	35	0	
15	36	0	
15	37	0	
15	38	0	
15	39	0	
15	40	0	
16	0	0	
16	1	0	
16	2	0	
16	3	0	
16	4	0	
16	5	0	
16	6	0	
16	7	0	
16	8	0	
16	9	0	
16	10	0	
16	11	0	
16	12	0	
16	13	0	
16	14	0	
16	15	0	
16	16	0	
16	17	0	
16	18	0	
16	19	0	
16	20	0	
16	21	0	
16	22	0	
16	23	0	
16	24	0	
16	25	0	
16	26	0	
16	27	0	
16	28	0	
16	29	0	
16	30	0	
16	31	0	
16	32	0	
16	33	0	
16	34	0	
16	35	0	
16	36	0	
16	37	0	
16	38	0	
16	39	0	
16	40	0	
17	0	0	
17	1	0	
17	2	0	
17	3	0	
17	4	0	
17	5	0	
17	6	0	
17	7	0	
17	8	0	
17	9	0	
17	10	0	
17	11	0	
17	12	0	
17	13	0	
17	14	0	
17	15	0	
17	16	0	
17	17	0	
17	18	0	
17	19	0	
17	20	0	
17	21	0	
17	22	0	
17	23	0	
17	24	0	
17	25	0	
17	26	0	
17	27	0	
17	28	0	
17	29	0	
17	30	0	
17	31	0	
17	32	0	
17	33	0	
17	34	0	
17	35	0	
17	36	0	
17	37	0	
17	38	0	
17	39	0	
17	40	0	
18	0	0	
18	1	0	
18	2	0	
18	3	0	
18	4	0	
18	5	0	
18	6	0	
18	7	0	
18	8	0	
18	9	0	
18	10	0	
18	11	0	
18	12	0	
18	13	0	
18	14	0	
18	15	0	
18	16	0	
18	17	0	
18	18	0	
18	19	0	
18	20	0	
18	21	0	
18	22	0	
18	23	0	
18	24	0	
18	25	0	
18	26	0	
18	27	0	
18	28	0	
18	29	0	
18	30	0	
18	31	0	
18	32	0	
18	33	0	
18	34	0	
18	35	0	
18	36	0	
18	37	0	
18	38	0	
18	39	0	
18	40	0	
19	0	0	
19	1	0	
19	2	0	
19	3	0	
19	4	0	
19	5	0	
19	6	0	
19	7	0	
19	8	0	
19	9	0	
19	10	0	
19	11	0	
19	12	0	
19	13	0	
19	14	0	
19	15	0	
19	16	0	
19	17	0	
19	18	0	
19	19	0	
19	20	0	
19	21	0	
19	22	0	
19	23	0	
19	24	0	
19	25	0	
19	26	0	
19	27	0	
19	28	0	
19	29	0	
19	30	0	
19	31	0	
19	32	0	
19	33	0	
19	34	0	
19	35	0	
19	36	0	
19	37	0	
19	38	0	
19	39	0	
19	40	0	
20	0	0	
20	1	0	
20	2	0	
20	3	0	
20	4	0	
20	5	0	
20	6	0	
20	7	0	
20	8	0	
20	9	0	
20	10	0	
20	11	0	
20	12	0	
20	13	0	
20	14	0	
20	15	0	
20	16	0	
20	17	0	
20	18	0	
20	19	0	
20	20	0	
20	21	0	
20	22	0	
20	23	0	
20	24	0	
20	25	0	
20	26	0	
20	27	0	
20	28	0	
20	29	0	
20	30	0	
20	31	0	
20	32	0	
20	33	0	
20	34	0	
20	35	0	
20	36	0	
20	37	0	
20	38	0	
20	39	0	
20	40	0	
21	0	0	
21	1	0	
21	2	0	
21	3	0	
21	4	0	
21	5	0	
21	6	0	
21	7	0	
21	8	0	
21	9	0	
21	10	0	
21	11	0	
21	12	0	
21	13	0	
21	14	0	
21	15	0	
21	16	0	
21	17	0	
21	18	0	
21	19	0	
21	20	0	
21	21	0	
21	22	0	
21	23	0	
21	24	0	
21	25	0	
21	26	0	
21	27	0	
21	28	0	
21	29	0	
21	30	0	
21	31	0	
21	32	0	
21	33	0	
21	34	0	
21	35	0	
21	36	0	
21	37	0	
21	38	0	
21	39	0	
21	40	0	
22	0	0	
22	1	0	
22	2	0	
22	3	0	
22	4	0	
22	5	0	
22	6	0	
22	7	0	
22	8	0	
22	9	0	
22	10	0	
22	11	0	
22	12	0	
22	13	0	
22	14	0	
22	15	0	
22	16	0	
22	17	0	
22	18	0	
22	19	0	
22	20	0	
22	21	0	
22	22	0	
22	23	0	
22	24	0	
22	25	0	
22	26	0	
22	27	0	
22	28	0	
22	29	0	
22	30	0	
22	31	0	
22	32	0	
22	33	0	
22	34	0	
22	35	0	
22	36	0	
22	37	0	
22	38	0	
22	39	0	
22	40	0	
23	0	0	
23	1	0	
23	2	0	
23	3	0	
23	4	0	
23	5	0	
23	6	0	
23	7	0	
23	8	0	
23	9	0	
23	10	0	
23	11	0	
23	12	0	
23	13	0	
23	14	0	
23	15	0	
23	16	0	
23	17	0	
23	18	0	
23	19	0	
23	20	0	
23	21	0	
23	22	0	
23	23	0	
23	24	0	
23	25	0	
23	26	0	
23	27	0	
23	28	0	
23	29	0	
23	30	0	
23	31	0	
23	32	0	
23	33	0	
23	34	0	
23	35	0	
23	36	0	
23	37	0	
23	38	0	
23	39	0	
23	40	0	
24	0	0	
24	1	0	
24	2	0	
24	3	0	
24	4	0	
24	5	0	
24	6	0	
24	7	0	
24	8	0	
24	9	0	
24	10	0	
24	11	0	
24	12	0	
24	13	0	
24	14	0	
24	15	0	
24	16	0	
24	17	0	
24	18	0	
24	19	0	
24	20	0	
24	21	0	
24	22	0	
24	23	0	
24	24	0	
24	25	0	
24	26	0	
24	27	0	
24	28	0	
24	29	0	
24	30	0	
24	31	0	
24	32	0	
24	33	0	
24	34	0	
24	35	0	
24	36	0	
24	37	0	
24	38	0	
24	39	0	
24	40	0	
25	0	0	
25	1	0	
25	2	0	
25	3	0	
25	4	0	
25	5	0	
25	6	0	
25	7	0	
25	8	0	
25	9	0	
25	10	0	
25	11	0	
25	12	0	
25	13	0	
25	14	0	
25	15	0	
25	16	0	
25	17	0	
25	18	0	
25	19	0	
25	20	0	
25	21	0	
25	22	0	
25	23	0	
25	24	0	
25	25	0	
25	26	0	
25	27	0	
25	28	0	
25	29	0	
25	30	0	
25	31	0	
25	32	0	
25	33	0	
25	34	0	
25	35	0	
25	36	0	
25	37	0	
25	38	0	
25	39	0	
25	40	0	
26	0	0	
26	1	0	
26	2	0	
26	3	0	
26	4	0	
26	5	0	
26	6	0	
26	7	0	
26	8	0	
26	9	0	
26	10	0	
26	11	0	
26	12	0	
26	13	0	
26	14	0	
26	15	0	
26	16	0	
26	17	0	
26	18	0	
26	19	0	
26	20	0	
26	21	0	
26	22	0	
26	23	0	
26	24	0	
26	25	0	
26	26	0	
26	27	0	
26	28	0	
26	29	0	
26	30	0	
26	31	0	
26	32	0	
26	33	0	
26	34	0	
26	35	0	
26	36	0	
26	37	0	
26	38	0	
26	39	0	
26	40	0	
27	0	0	
27	1	0	
27	2	0	
27	3	0	
27	4	0	
27	5	0	
27	6	0	
27	7	0	
27	8	0	
27	9	0	
27	10	0	
27	11	0	
27	12	0	
27	13	0	
27	14	0	
27	15	0	
27	16	0	
27	17	0	
27	18	0	
27	19	0	
27	20	0	
27	21	0	
27	22	0	
27	23	0	
27	24	0	
27	25	0	
27	26	0	
27	27	0	
27	28	0	
27	29	0	
27	30	0	
27	31	0	
27	32	0	
27	33	0	
27	34	0	
27	35	0	
27	36	0	
27	37	0	
27	38	0	
27	39	0	
27	40	0	
28	0	0	
28	1	0	
28	2	0	
28	3	0	
28	4	0	
28	5	0	
28	6	0	
28	7	0	
28	8	0	
28	9	0	
28	10	0	
28	11	0	
28	12	0	
28	13	0	
28	14	0	
28	15	0	
28	16	0	
28	17	0	
28	18	0	
28	19	0	
28	20	0	
28	21	0	
28	22	0	
28	23	0	
28	24	0	
28	25	0	
28	26	0	
28	27	0	
28	28	0	
28	29	0	
28	30	0	
[...]
POINT_DATA	7401
VECTORS d float
-9.66024e-017	-5.32157e-017	0	
-3.43487e-017	-1.46455e-017	0	
-2.59048e-017	-7.89582e-018	0	
-2.14854e-017	-6.48265e-018	0	
-1.60886e-017	-5.65278e-018	0	
3.90845e-018	-3.65149e-018	0	
-1.60943e-017	-3.47572e-018	0	
-1.42563e-017	-8.5191e-018	0	
-1.31062e-017	-8.18516e-018	0	
-1.18171e-017	-7.89453e-018	0	
-1.03469e-017	-7.78508e-018	0	
-9.00901e-018	-7.62433e-018	0	
-7.80345e-018	-7.4812e-018	0	
-6.7132e-018	-7.32151e-018	0	
-5.69631e-018	-7.15215e-018	0	
-4.72099e-018	-6.98558e-018	0	
-3.76784e-018	-6.83377e-018	0	
-2.82555e-018	-6.70707e-018	0	
-1.8855e-018	-6.61202e-018	0	
-9.42907e-019	-6.55291e-018	0	
6.36609e-023	-6.53264e-018	0	
9.4299e-019	-6.55212e-018	0	
1.88546e-018	-6.61049e-018	0	
2.82531e-018	-6.70494e-018	0	
3.76738e-018	-6.8312e-018	0	
4.72031e-018	-6.98276e-018	0	
5.69543e-018	-7.14927e-018	0	
6.71218e-018	-7.31877e-018	0	
7.80237e-018	-7.47874e-018	0	
9.00796e-018	-7.62227e-018	0	
1.03459e-017	-7.78346e-018	0	
1.18163e-017	-7.89337e-018	0	
1.31057e-017	-8.18441e-018	0	
1.42559e-017	-8.51869e-018	0	
1.60941e-017	-3.47556e-018	0	
-3.90845e-018	-3.65149e-018	0	
1.60886e-017	-5.65278e-018	0	
2.14854e-017	-6.48265e-018	0	
2.59048e-017	-7.89582e-018	0	
3.43487e-017	-1.46455e-017	0	
9.66024e-017	-5.32157e-017	0	
-3.03524e-006	-2.7484e-006	0	
-1.74786e-006	-1.98963e-006	0	
-1.25863e-006	-1.57085e-006	0	
-1.03147e-006	-1.36486e-006	0	
-7.8819e-007	-1.14719e-006	0	
-3.57383e-008	-9.32876e-007	0	
-6.05273e-007	-1.20323e-006	0	
-6.11734e-007	-1.34213e-006	0	
-5.94258e-007	-1.35286e-006	0	
-5.37555e-007	-1.31921e-006	0	
-4.7086e-007	-1.28956e-006	0	
-4.10654e-007	-1.26037e-006	0	
-3.57445e-007	-1.23085e-006	0	
-3.0927e-007	-1.20065e-006	0	
-2.63862e-007	-1.1706e-006	0	
-2.19622e-007	-1.1424e-006	0	
-1.75754e-007	-1.11763e-006	0	
-1.31933e-007	-1.09746e-006	0	
-8.80396e-008	-1.08264e-006	0	
-4.40512e-008	-1.07361e-006	0	
1.44805e-013	-1.07057e-006	0	
4.40508e-008	-1.07359e-006	0	
8.80374e-008	-1.08261e-006	0	
1.31928e-007	-1.09742e-006	0	
1.75746e-007	-1.11757e-006	0	
2.19611e-007	-1.14234e-006	0	
2.63848e-007	-1.17054e-006	0	
3.09255e-007	-1.2006e-006	0	
3.57429e-007	-1.23081e-006	0	
4.10639e-007	-1.26033e-006	0	
4.70846e-007	-1.28953e-006	0	
5.37544e-007	-1.31918e-006	0	
5.94251e-007	-1.35285e-006	0	
6.1173e-007	-1.34213e-006	0	
6.05272e-007	-1.20323e-006	0	
3.57383e-008	-9.32876e-007	0	
7.8819e-007	-1.14719e-006	0	
1.03147e-006	-1.36486e-006	0	
1.25863e-006	-1.57085e-006	0	
1.74786e-006	-1.98963e-006	0	
3.03524e-006	-2.7484e-006	0	
-4.98364e-006	-4.74685e-006	0	
-3.47473e-006	-4.01885e-006	0	
-2.63395e-006	-3.48813e-006	0	
-2.12139e-006	-3.16423e-006	0	
-1.69793e-006	-3.00421e-006	0	
-1.22976e-006	-3.03007e-006	0	
-1.21639e-006	-3.23767e-006	0	
-1.28603e-006	-2.95997e-006	0	
-1.22906e-006	-2.87392e-006	0	
-1.09845e-006	-2.8086e-006	0	
-9.66249e-007	-2.73528e-006	0	
-8.44986e-007	-2.66305e-006	0	
-7.39553e-007	-2.58914e-006	0	
-6.43124e-007	-2.51638e-006	0	
-5.5083e-007	-2.44754e-006	0	
-4.59674e-007	-2.38549e-006	0	
-3.68432e-007	-2.33264e-006	0	
-2.76798e-007	-2.29052e-006	0	
-1.84781e-007	-2.26e-006	0	
-9.24716e-008	-2.24153e-006	0	
-9.70921e-013	-2.23534e-006	0	
9.24686e-008	-2.2415e-006	0	
1.84775e-007	-2.25994e-006	0	
2.76787e-007	-2.29044e-006	0	
3.68416e-007	-2.33254e-006	0	
4.59653e-007	-2.38538e-006	0	
5.50805e-007	-2.44743e-006	0	
6.43096e-007	-2.51628e-006	0	
7.39524e-007	-2.58905e-006	0	
8.4496e-007	-2.66298e-006	0	
9.66226e-007	-2.73522e-006	0	
1.09843e-006	-2.80856e-006	0	
1.22905e-006	-2.8739e-006	0	
1.28603e-006	-2.95996e-006	0	
1.21639e-006	-3.23767e-006	0	
1.22976e-006	-3.03007e-006	0	
1.69793e-006	-3.00421e-006	0	
2.12139e-006	-3.16423e-006	0	
2.63395e-006	-3.48813e-006	0	
3.47473e-006	-4.01885e-006	0	
4.98364e-006	-4.74685e-006	0	
-6.60298e-006	-6.59569e-006	0	
-5.06601e-006	-5.9572e-006	0	
-3.97796e-006	-5.43179e-006	0	
-3.20767e-006	-5.08378e-006	0	
-2.62318e-006	-4.88002e-006	0	
-2.15576e-006	-4.65624e-006	0	
-1.24214e-006	-4.49946e-006	0	
-2.03417e-006	-4.64295e-006	0	
-1.91292e-006	-4.60654e-006	0	
-1.69501e-006	-4.49661e-006	0	
-1.49459e-006	-4.34737e-006	0	
-1.31526e-006	-4.20487e-006	0	
-1.15581e-006	-4.0681e-006	0	
-1.0093e-006	-3.93849e-006	0	
-8.66404e-007	-3.82087e-006	0	
-7.23596e-007	-3.71886e-006	0	
-5.79972e-007	-3.63443e-006	0	
-4.35598e-007	-3.56851e-006	0	
-2.90695e-007	-3.52136e-006	0	
-1.4544e-007	-3.49306e-006	0	
-2.21094e-012	-3.48361e-006	0	
1.45434e-007	-3.49301e-006	0	
2.90685e-007	-3.52127e-006	0	
4.35583e-007	-3.56839e-006	0	
5.7995e-007	-3.63429e-006	0	
7.23567e-007	-3.71871e-006	0	
8.6637e-007	-3.82072e-006	0	
1.00926e-006	-3.93835e-006	0	
1.15578e-006	-4.06797e-006	0	
1.31522e-006	-4.20477e-006	0	
1.49456e-006	-4.3473e-006	0	
1.69499e-006	-4.49656e-006	0	
1.91291e-006	-4.60651e-006	0	
2.03416e-006	-4.64294e-006	0	
1.24214e-006	-4.49946e-006	0	
2.15576e-006	-4.65624e-006	0	
2.62318e-006	-4.88002e-006	0	
3.20767e-006	-5.08378e-006	0	
3.97796e-006	-5.43179e-006	0	
5.06601e-006	-5.9572e-006	0	
6.60298e-006	-6.59569e-006	0	
-8.02557e-006	-8.34381e-006	0	
-6.46754e-006	-7.77552e-006	0	
-5.2212e-006	-7.29326e-006	0	
-4.25115e-006	-6.96638e-006	0	
-3.51447e-006	-6.79643e-006	0	
-2.95608e-006	-6.80132e-006	0	
-2.48285e-006	-7.05417e-006	0	
-2.96795e-006	-7.52138e-006	0	
-2.709e-006	-6.72598e-006	0	
-2.38396e-006	-6.37681e-006	0	
-2.08156e-006	-6.12403e-006	0	
-1.83382e-006	-5.87154e-006	0	
-1.6192e-006	-5.64961e-006	0	
-1.41642e-006	-5.44907e-006	0	
-1.21609e-006	-5.27419e-006	0	
-1.01444e-006	-5.1278e-006	0	
-8.11904e-007	-5.00986e-006	0	
-6.0905e-007	-4.91932e-006	0	
-4.06092e-007	-4.85527e-006	0	
-2.0307e-007	-4.81704e-006	0	
-2.54479e-012	-4.80432e-006	0	
2.03063e-007	-4.81699e-006	0	
4.06081e-007	-4.85516e-006	0	
6.09033e-007	-4.91918e-006	0	
8.1188e-007	-5.00968e-006	0	
1.01441e-006	-5.12761e-006	0	
1.21605e-006	-5.27401e-006	0	
1.41638e-006	-5.44889e-006	0	
1.61917e-006	-5.64946e-006	0	
1.83379e-006	-5.87143e-006	0	
2.08154e-006	-6.12395e-006	0	
2.38394e-006	-6.37676e-006	0	
2.70899e-006	-6.72596e-006	0	
2.96795e-006	-7.52138e-006	0	
2.48285e-006	-7.05417e-006	0	
2.95608e-006	-6.80132e-006	0	
3.51447e-006	-6.79643e-006	0	
4.25115e-006	-6.96638e-006	0	
5.2212e-006	-7.29326e-006	0	
6.46754e-006	-7.77552e-006	0	
8.02557e-006	-8.34381e-006	0	
-9.31818e-006	-1.00244e-005	0	
-7.74478e-006	-9.49584e-006	0	
-6.36501e-006	-9.04726e-006	0	
-5.21384e-006	-8.73983e-006	0	
-4.30529e-006	-8.59738e-006	0	
-3.64845e-006	-8.57112e-006	0	
-3.37908e-006	-8.60551e-006	0	
-3.41675e-006	-8.91114e-006	0	
-3.61862e-006	-9.29998e-006	0	
-3.21619e-006	-8.45761e-006	0	
-2.7547e-006	-7.97613e-006	0	
-2.41536e-006	-7.63213e-006	0	
-2.13904e-006	-7.30046e-006	0	
-1.87222e-006	-7.01924e-006	0	
-1.60283e-006	-6.78449e-006	0	
-1.33297e-006	-6.59429e-006	0	
-1.06419e-006	-6.44411e-006	0	
-7.96931e-007	-6.33011e-006	0	
-5.30788e-007	-6.24993e-006	0	
-2.65264e-007	-6.20224e-006	0	
-1.2398e-012	-6.18638e-006	0	
2.6526e-007	-6.20218e-006	0	
5.3078e-007	-6.24981e-006	0	
7.96915e-007	-6.32995e-006	0	
1.06416e-006	-6.44392e-006	0	
1.33294e-006	-6.59409e-006	0	
1.6028e-006	-6.78429e-006	0	
1.87219e-006	-7.01906e-006	0	
2.13901e-006	-7.30031e-006	0	
2.41533e-006	-7.63202e-006	0	
2.75468e-006	-7.97606e-006	0	
3.21618e-006	-8.45758e-006	0	
3.61862e-006	-9.29998e-006	0	
3.41675e-006	-8.91114e-006	0	
3.37908e-006	-8.60551e-006	0	
3.64845e-006	-8.57112e-006	0	
4.30529e-006	-8.59738e-006	0	
5.21384e-006	-8.73983e-006	0	
6.36501e-006	-9.04726e-006	0	
7.74478e-006	-9.49584e-006	0	
9.31818e-006	-1.00244e-005	0	
-1.05591e-005	-1.1658e-005	0	
-8.94492e-006	-1.11438e-005	0	
-7.4313e-006	-1.0706e-005	0	
-6.10193e-006	-1.03968e-005	0	
-5.03556e-006	-1.02349e-005	0	
-4.3121e-006	-1.01811e-005	0	
-3.97648e-006	-1.01606e-005	0	
-3.94138e-006	-1.02134e-005	0	
-3.98593e-006	-1.04714e-005	0	
-4.12935e-006	-1.07787e-005	0	
-3.51018e-006	-9.89999e-006	0	
-3.06954e-006	-9.38423e-006	0	
-2.72412e-006	-8.97276e-006	0	
-2.37674e-006	-8.60998e-006	0	
-2.02338e-006	-8.326e-006	0	
-1.67582e-006	-8.0999e-006	0	
-1.33444e-006	-7.92261e-006	0	
-9.97755e-007	-7.78833e-006	0	
-6.6394e-007	-7.69392e-006	0	
-3.31647e-007	-7.63779e-006	0	
2.01104e-012	-7.61914e-006	0	
3.3165e-007	-7.63772e-006	0	
6.63938e-007	-7.6938e-006	0	
9.97746e-007	-7.78816e-006	0	
1.33443e-006	-7.92241e-006	0	
1.6758e-006	-8.09969e-006	0	
2.02335e-006	-8.32579e-006	0	
2.37671e-006	-8.6098e-006	0	
2.72409e-006	-8.97262e-006	0	
3.06952e-006	-9.38414e-006	0	
3.51017e-006	-9.89994e-006	0	
4.12935e-006	-1.07787e-005	0	
3.98593e-006	-1.04714e-005	0	
3.94138e-006	-1.02134e-005	0	
3.97648e-006	-1.01606e-005	0	
4.3121e-006	-1.01811e-005	0	
5.03556e-006	-1.02349e-005	0	
6.10193e-006	-1.03968e-005	0	
7.4313e-006	-1.0706e-005	0	
8.94492e-006	-1.11438e-005	0	
1.05591e-005	-1.1658e-005	0	
-1.18081e-005	-1.3302e-005	0	
-1.01112e-005	-1.27827e-005	0	
-8.45307e-006	-1.23287e-005	0	
-6.93035e-006	-1.19845e-005	0	
-5.68317e-006	-1.17945e-005	0	
-4.89038e-006	-1.17254e-005	0	
-4.5438e-006	-1.16617e-005	0	
-4.45029e-006	-1.15946e-005	0	
-4.451e-006	-1.15757e-005	0	
-4.4047e-006	-1.16939e-005	0	
-4.20603e-006	-1.18351e-005	0	
-3.80049e-006	-1.10896e-005	0	
-3.37018e-006	-1.05744e-005	0	
-2.9123e-006	-1.01892e-005	0	
-2.46634e-006	-9.87822e-006	0	
-2.03542e-006	-9.63044e-006	0	
-1.61834e-006	-9.43327e-006	0	
-1.20903e-006	-9.28285e-006	0	
-8.04123e-007	-9.17684e-006	0	
-4.01553e-007	-9.11377e-006	0	
7.04682e-012	-9.09282e-006	0	
4.01565e-007	-9.11371e-006	0	
8.0413e-007	-9.17672e-006	0	
1.20903e-006	-9.28268e-006	0	
1.61833e-006	-9.43308e-006	0	
2.03541e-006	-9.63023e-006	0	
2.46633e-006	-9.87803e-006	0	
2.91228e-006	-1.0189e-005	0	
3.37016e-006	-1.05742e-005	0	
3.80048e-006	-1.10896e-005	0	
4.20603e-006	-1.18351e-005	0	
4.4047e-006	-1.16939e-005	0	
4.451e-006	-1.15757e-005	0	
4.45029e-006	-1.15946e-005	0	
4.5438e-006	-1.16617e-005	0	
4.89038e-006	-1.17254e-005	0	
5.68317e-006	-1.17945e-005	0	
6.93035e-006	-1.19845e-005	0	
8.45307e-006	-1.23287e-005	0	
1.01112e-005	-1.27827e-005	0	
1.18081e-005	-1.3302e-005	0	
-1.30963e-005	-1.50372e-005	0	
-1.12721e-005	-1.45059e-005	0	
-9.46806e-006	-1.40189e-005	0	
-7.74199e-006	-1.35911e-005	0	
-6.1896e-006	-1.33075e-005	0	
-5.36143e-006	-1.32211e-005	0	
-5.11266e-006	-1.30924e-005	0	
-5.01224e-006	-1.29421e-005	0	
-4.94799e-006	-1.28506e-005	0	
-4.80865e-006	-1.27649e-005	0	
-4.22449e-006	-1.26842e-005	0	
-4.51003e-006	-1.2477e-005	0	
-4.01408e-006	-1.2112e-005	0	
-3.45109e-006	-1.17581e-005	0	
-2.91407e-006	-1.14402e-005	0	
-2.40455e-006	-1.11786e-005	0	
-1.91139e-006	-1.09669e-005	0	
-1.4279e-006	-1.08043e-005	0	
-9.49502e-007	-1.06897e-005	0	
-4.7406e-007	-1.06216e-005	0	
1.32854e-011	-1.05991e-005	0	
4.74085e-007	-1.06216e-005	0	
9.49522e-007	-1.06896e-005	0	
1.42791e-006	-1.08042e-005	0	
1.91139e-006	-1.09668e-005	0	
2.40454e-006	-1.11784e-005	0	
2.91406e-006	-1.144e-005	0	
3.45108e-006	-1.1758e-005	0	
4.01407e-006	-1.21119e-005	0	
4.51003e-006	-1.24769e-005	0	
4.22449e-006	-1.26842e-005	0	
4.80865e-006	-1.27649e-005	0	
4.94799e-006	-1.28506e-005	0	
5.01224e-006	-1.29421e-005	0	
5.11266e-006	-1.30924e-005	0	
5.36143e-006	-1.32211e-005	0	
6.1896e-006	-1.33075e-005	0	
7.74199e-006	-1.35911e-005	0	
9.46806e-006	-1.40189e-005	0	
1.12721e-005	-1.45059e-005	0	
1.30963e-005	-1.50372e-005	0	
-1.44117e-005	-1.6939e-005	0	
-1.24322e-005	-1.64062e-005	0	
-1.04957e-005	-1.59121e-005	0	
-8.5943e-006	-1.54381e-005	0	
-6.59971e-006	-1.49485e-005	0	
-5.74612e-006	-1.44026e-005	0	
-5.68433e-006	-1.43274e-005	0	
-5.59228e-006	-1.42007e-005	0	
-5.44959e-006	-1.41427e-005	0	
-5.28152e-006	-1.41666e-005	0	
-5.02926e-006	-1.43143e-005	0	
-5.32637e-006	-1.45913e-005	0	
-4.6776e-006	-1.37727e-005	0	
-3.99024e-006	-1.33386e-005	0	
-3.36251e-006	-1.3022e-005	0	
-2.77865e-006	-1.27389e-005	0	
-2.21084e-006	-1.25149e-005	0	
-1.65132e-006	-1.23444e-005	0	
-1.09777e-006	-1.22252e-005	0	
-5.47958e-007	-1.21547e-005	0	
1.98472e-011	-1.21314e-005	0	
5.47996e-007	-1.21547e-005	0	
1.0978e-006	-1.22251e-005	0	
1.65134e-006	-1.23442e-005	0	
2.21086e-006	-1.25148e-005	0	
2.77865e-006	-1.27387e-005	0	
3.36251e-006	-1.30219e-005	0	
3.99023e-006	-1.33385e-005	0	
4.6776e-006	-1.37726e-005	0	
5.32637e-006	-1.45913e-005	0	
5.02926e-006	-1.43143e-005	0	
5.28152e-006	-1.41666e-005	0	
5.44959e-006	-1.41427e-005	0	
5.59228e-006	-1.42007e-005	0	
5.68433e-006	-1.43274e-005	0	
5.74612e-006	-1.44026e-005	0	
6.59971e-006	-1.49485e-005	0	
8.5943e-006	-1.54381e-005	0	
1.04957e-005	-1.59121e-005	0	
1.24322e-005	-1.64062e-005	0	
1.44117e-005	-1.6939e-005	0	
-1.57114e-005	-1.90378e-005	0	
-1.35726e-005	-1.85217e-005	0	
-1.15024e-005	-1.80524e-005	0	
-9.43451e-006	-1.76441e-005	0	
-7.24585e-006	-1.73113e-005	0	
-5.97237e-006	-1.50096e-005	0	
-6.31859e-006	-1.52677e-005	0	
-6.09786e-006	-1.53896e-005	0	
-5.93601e-006	-1.53968e-005	0	
-5.76384e-006	-1.53597e-005	0	
-5.64049e-006	-1.53176e-005	0	
-5.57483e-006	-1.54367e-005	0	
-5.43944e-006	-1.56135e-005	0	
-4.54951e-006	-1.49632e-005	0	
-3.81787e-006	-1.45824e-005	0	
-3.15842e-006	-1.42987e-005	0	
-2.5125e-006	-1.40654e-005	0	
-1.87474e-006	-1.38961e-005	0	
-1.24568e-006	-1.37785e-005	0	
-6.21652e-007	-1.3709e-005	0	
2.57311e-011	-1.36861e-005	0	
6.21701e-007	-1.3709e-005	0	
1.24572e-006	-1.37784e-005	0	
1.87477e-006	-1.3896e-005	0	
2.51252e-006	-1.40652e-005	0	
3.15844e-006	-1.42986e-005	0	
3.81787e-006	-1.45823e-005	0	
4.54951e-006	-1.49632e-005	0	
5.43944e-006	-1.56135e-005	0	
5.57483e-006	-1.54367e-005	0	
5.64049e-006	-1.53176e-005	0	
5.76384e-006	-1.53597e-005	0	
5.93601e-006	-1.53968e-005	0	
6.09786e-006	-1.53896e-005	0	
6.31859e-006	-1.52677e-005	0	
5.97237e-006	-1.50096e-005	0	
7.24585e-006	-1.73113e-005	0	
9.43451e-006	-1.76441e-005	0	
1.15024e-005	-1.80524e-005	0	
1.35726e-005	-1.85217e-005	0	
1.57114e-005	-1.90378e-005	0	
-1.69563e-005	-2.13125e-005	0	
-1.46785e-005	-2.08199e-005	0	
-1.24803e-005	-2.03751e-005	0	
-1.02743e-005	-1.99806e-005	0	
-7.97096e-006	-1.96365e-005	0	
-6.9891e-006	-1.81377e-005	0	
-7.10784e-006	-1.68148e-005	0	
-6.58651e-006	-1.67308e-005	0	
-6.45892e-006	-1.66223e-005	0	
-6.32072e-006	-1.65223e-005	0	
-6.12757e-006	-1.64324e-005	0	
-5.91871e-006	-1.63977e-005	0	
-5.59322e-006	-1.64655e-005	0	
-5.02215e-006	-1.6537e-005	0	
-4.27892e-006	-1.61084e-005	0	
-3.53623e-006	-1.58165e-005	0	
-2.8038e-006	-1.56121e-005	0	
-2.09136e-006	-1.5457e-005	0	
-1.38919e-006	-1.53487e-005	0	
-6.93279e-007	-1.52841e-005	0	
3.00108e-011	-1.52626e-005	0	
6.93337e-007	-1.5284e-005	0	
1.38924e-006	-1.53486e-005	0	
2.0914e-006	-1.54569e-005	0	
2.80383e-006	-1.5612e-005	0	
3.53625e-006	-1.58164e-005	0	
4.27893e-006	-1.61083e-005	0	
5.02215e-006	-1.6537e-005	0	
5.59322e-006	-1.64655e-005	0	
5.91871e-006	-1.63977e-005	0	
6.12757e-006	-1.64324e-005	0	
6.32072e-006	-1.65223e-005	0	
6.45892e-006	-1.66223e-005	0	
6.58651e-006	-1.67308e-005	0	
7.10784e-006	-1.68148e-005	0	
6.9891e-006	-1.81377e-005	0	
7.97096e-006	-1.96365e-005	0	
1.02743e-005	-1.99806e-005	0	
1.24803e-005	-2.03751e-005	0	
1.46785e-005	-2.08199e-005	0	
1.69563e-005	-2.13125e-005	0	
-1.813e-005	-2.37174e-005	0	
-1.57481e-005	-2.32485e-005	0	
-1.34495e-005	-2.28158e-005	0	
-1.11456e-005	-2.24181e-005	0	
-8.75568e-006	-2.20531e-005	0	
-7.97539e-006	-2.01318e-005	0	
-7.12451e-006	-1.75889e-005	0	
-7.00576e-006	-1.77251e-005	0	
-7.03177e-006	-1.78009e-005	0	
-6.90905e-006	-1.77072e-005	0	
-6.62361e-006	-1.76451e-005	0	
-6.3037e-006	-1.76159e-005	0	
-5.85321e-006	-1.7577e-005	0	
-5.0184e-006	-1.75344e-005	0	
-4.67646e-006	-1.74648e-005	0	
-3.87011e-006	-1.73135e-005	0	
-3.06854e-006	-1.71684e-005	0	
-2.29361e-006	-1.70352e-005	0	
-1.5252e-006	-1.69395e-005	0	
-7.6093e-007	-1.68831e-005	0	
3.20116e-011	-1.68646e-005	0	
7.60992e-007	-1.68831e-005	0	
1.52525e-006	-1.69395e-005	0	
2.29366e-006	-1.70352e-005	0	
3.06858e-006	-1.71684e-005	0	
3.87013e-006	-1.73135e-005	0	
4.67647e-006	-1.74648e-005	0	
5.0184e-006	-1.75344e-005	0	
5.85321e-006	-1.7577e-005	0	
6.3037e-006	-1.76159e-005	0	
6.62361e-006	-1.76451e-005	0	
6.90905e-006	-1.77072e-005	0	
7.03177e-006	-1.78009e-005	0	
7.00576e-006	-1.77251e-005	0	
7.12451e-006	-1.75889e-005	0	
7.97539e-006	-2.01318e-005	0	
8.75568e-006	-2.20531e-005	0	
1.11456e-005	-2.24181e-005	0	
1.34495e-005	-2.28158e-005	0	
1.57481e-005	-2.32485e-005	0	
1.813e-005	-2.37174e-005	0	
-1.92306e-005	-2.62077e-005	0	
-1.67827e-005	-2.57617e-005	0	
-1.44193e-005	-2.53364e-005	0	
-1.20538e-005	-2.49307e-005	0	
-9.60376e-006	-2.45435e-005	0	
-9.02486e-006	-2.27984e-005	0	
-8.20754e-006	-2.09339e-005	0	
-7.29357e-006	-1.85305e-005	0	
-7.77269e-006	-1.8855e-005	0	
-7.45785e-006	-1.9002e-005	0	
-7.10804e-006	-1.90107e-005	0	
-6.70367e-006	-1.89981e-005	0	
-6.19089e-006	-1.90279e-005	0	
-5.5264e-006	-1.91332e-005	0	
-5.12425e-006	-1.93123e-005	0	
-4.16703e-006	-1.89093e-005	0	
-3.31526e-006	-1.87515e-005	0	
-2.48375e-006	-1.86396e-005	0	
-1.65097e-006	-1.85564e-005	0	
-8.22094e-007	-1.85137e-005	0	
3.14294e-011	-1.85001e-005	0	
8.22154e-007	-1.85137e-005	0	
1.65103e-006	-1.85563e-005	0	
2.4838e-006	-1.86395e-005	0	
3.31529e-006	-1.87515e-005	0	
4.16704e-006	-1.89093e-005	0	
5.12425e-006	-1.93123e-005	0	
5.5264e-006	-1.91332e-005	0	
6.19089e-006	-1.90279e-005	0	
6.70367e-006	-1.89981e-005	0	
7.10804e-006	-1.90107e-005	0	
7.45785e-006	-1.9002e-005	0	
7.77269e-006	-1.8855e-005	0	
7.29357e-006	-1.85305e-005	0	
8.20754e-006	-2.09339e-005	0	
9.02486e-006	-2.27984e-005	0	
9.60376e-006	-2.45435e-005	0	
1.20538e-005	-2.49307e-005	0	
1.44193e-005	-2.53364e-005	0	
1.67827e-005	-2.57617e-005	0	
1.92306e-005	-2.62077e-005	0	
-2.02598e-005	-2.87447e-005	0	
-1.77826e-005	-2.83211e-005	0	
-1.53902e-005	-2.79026e-005	0	
-1.29971e-005	-2.74888e-005	0	
-1.05198e-005	-2.70793e-005	0	
-1.00235e-005	-2.53359e-005	0	
-9.29442e-006	-2.35941e-005	0	
-8.50339e-006	-2.18094e-005	0	
-8.77699e-006	-2.07694e-005	0	
-8.03684e-006	-2.06416e-005	0	
-7.61525e-006	-2.05108e-005	0	
-7.12962e-006	-2.04863e-005	0	
-6.56678e-006	-2.04698e-005	0	
-5.95638e-006	-2.04356e-005	0	
-5.28004e-006	-2.04819e-005	0	
-4.38698e-006	-2.05461e-005	0	
-3.56545e-006	-2.03551e-005	0	
-2.66074e-006	-2.02544e-005	0	
-1.75828e-006	-2.02094e-005	0	
-8.72677e-007	-2.01879e-005	0	
2.83718e-011	-2.01828e-005	0	
8.72731e-007	-2.01879e-005	0	
1.75833e-006	-2.02094e-005	0	
2.66078e-006	-2.02544e-005	0	
3.56547e-006	-2.0355e-005	0	
4.38698e-006	-2.05461e-005	0	
5.28004e-006	-2.04819e-005	0	
5.95638e-006	-2.04356e-005	0	
6.56678e-006	-2.04698e-005	0	
7.12962e-006	-2.04863e-005	0	
7.61525e-006	-2.05108e-005	0	
8.03684e-006	-2.06416e-005	0	
8.77699e-006	-2.07694e-005	0	
8.50339e-006	-2.18094e-005	0	
9.29442e-006	-2.35941e-005	0	
1.00235e-005	-2.53359e-005	0	
1.05198e-005	-2.70793e-005	0	
1.29971e-005	-2.74888e-005	0	
1.53902e-005	-2.79026e-005	0	
1.77826e-005	-2.83211e-005	0	
2.02598e-005	-2.87447e-005	0	
-2.12187e-005	-3.12925e-005	0	
-1.8748e-005	-3.08914e-005	0	
-1.6362e-005	-3.04798e-005	0	
-1.39754e-005	-3.00579e-005	0	
-1.15044e-005	-2.96261e-005	0	
-1.10584e-005	-2.78698e-005	0	
-1.04065e-005	-2.60948e-005	0	
-9.62715e-006	-2.42144e-005	0	
-8.82053e-006	-2.18166e-005	0	
-8.71132e-006	-2.20099e-005	0	
-8.13272e-006	-2.20857e-005	0	
-7.59751e-006	-2.2065e-005	0	
-7.01548e-006	-2.20063e-005	0	
-6.34649e-006	-2.19475e-005	0	
-5.53982e-006	-2.18866e-005	0	
-4.38046e-006	-2.18427e-005	0	
-3.76499e-006	-2.18971e-005	0	
-2.80354e-006	-2.191e-005	0	
-1.83267e-006	-2.19225e-005	0	
-9.06225e-007	-2.19272e-005	0	
2.33326e-011	-2.19298e-005	0	
9.06269e-007	-2.19272e-005	0	
1.83271e-006	-2.19225e-005	0	
2.80356e-006	-2.191e-005	0	
3.765e-006	-2.18971e-005	0	
4.38046e-006	-2.18427e-005	0	
5.53982e-006	-2.18866e-005	0	
6.34649e-006	-2.19475e-005	0	
7.01548e-006	-2.20063e-005	0	
7.59751e-006	-2.2065e-005	0	
8.13272e-006	-2.20857e-005	0	
8.71132e-006	-2.20099e-005	0	
8.82053e-006	-2.18166e-005	0	
9.62715e-006	-2.42144e-005	0	
1.04065e-005	-2.60948e-005	0	
1.10584e-005	-2.78698e-005	0	
1.15044e-005	-2.96261e-005	0	
1.39754e-005	-3.00579e-005	0	
1.6362e-005	-3.04798e-005	0	
1.8748e-005	-3.08914e-005	0	
2.12187e-005	-3.12925e-005	0	
-2.21073e-005	-3.38162e-005	0	
-1.96787e-005	-3.34376e-005	0	
-1.73345e-005	-3.3033e-005	0	