# vtk DataFile Version 4.1
vtk output
ASCII
DATASET UNSTRUCTURED_GRID

POINTS	30401	float
0	0	0	
0	1	0	
0	2	0	
0	3	0	
0	4	0	
0	5	0	
0	6	0	
0	7	0	
0	8	0	
0	9	0	
0	10	0	
0	11	0	
0	12	0	
0	13	0	
0	14	0	
0	15	0	
0	16	0	
0	17	0	
0	18	0	
0	19	0	
0	20	0	
0	21	0	
0	22	0	
0	23	0	
0	24	0	
0	25	0	
0	26	0	
0	27	0	
0	28	0	
0	29	0	
0	30	0	
0	31	0	
0	32	0	
0	33	0	
0	34	0	
0	35	0	
0	36	0	
0	37	0	
0	38	0	
0	39	0	
0	40	0	
0	41	0	
0	42	0	
0	43	0	
0	44	0	
0	45	0	
0	46	0	
0	47	0	
0	48	0	
0	49	0	
0	50	0	
0	51	0	
0	52	0	
0	53	0	
0	54	0	
0	55	0	
0	56	0	
0	57	0	
0	58	0	
0	59	0	
0	60	0	
0	61	0	
0	62	0	
0	63	0	
0	64	0	
0	65	0	
0	66	0	
0	67	0	
0	68	0	
0	69	0	
0	70	0	
0	71	0	
0	72	0	
0	73	0	
0	74	0	
0	75	0	
0	76	0	
0	77	0	
0	78	0	
0	79	0	
0	80	0	
0	81	0	
0	82	0	
0	83	0	
0	84	0	
0	85	0	
0	86	0	
0	87	0	
0	88	0	
0	89	0	
0	90	0	
0	91	0	
0	92	0	
0	93	0	
0	94	0	
0	95	0	
0	96	0	
0	97	0	
0	98	0	
0	99	0	
0	100	0	
1	0	0	
1	1	0	
1	2	0	
1	3	0	
1	4	0	
1	5	0	
1	6	0	
1	7	0	
1	8	0	
1	9	0	
1	10	0	
1	11	0	
1	12	0	
1	13	0	
1	14	0	
1	15	0	
1	16	0	
1	17	0	
1	18	0	
1	19	0	
1	20	0	
1	21	0	
1	22	0	
1	23	0	
1	24	0	
1	25	0	
1	26	0	
1	27	0	
1	28	0	
1	29	0	
1	30	0	
1	31	0	
1	32	0	
1	33	0	
1	34	0	
1	35	0	
1	36	0	
1	37	0	
1	38	0	
1	39	0	
1	40	0	
1	41	0	
1	42	0	
1	43	0	
1	44	0	
1	45	0	
1	46	0	
1	47	0	
1	48	0	
1	49	0	
1	50	0	
1	51	0	
1	52	0	
1	53	0	
1	54	0	
1	55	0	
1	56	0	
1	57	0	
1	58	0	
1	59	0	
1	60	0	
1	61	0	
1	62	0	
1	63	0	
1	64	0	
1	65	0	
1	66	0	
1	67	0	
1	68	0	
1	69	0	
1	70	0	
1	71	0	
1	72	0	
1	73	0	
1	74	0	
1	75	0	
1	76	0	
1	77	0	
1	78	0	
1	79	0	
1	80	0	
1	81	0	
1	82	0	
1	83	0	
1	84	0	
1	85	0	
1	86	0	
1	87	0	
1	88	0	
1	89	0	
1	90	0	
1	91	0	
1	92	0	
1	93	0	
1	94	0	
1	95	0	
1	96	0	
1	97	0	
1	98	0	
1	99	0	
1	100	0	
2	0	0	
2	1	0	
2	2	0	
2	3	0	
2	4	0	
2	5	0	
2	6	0	
2	7	0	
2	8	0	
2	9	0	
2	10	0	
2	11	0	
2	12	0	
2	13	0	
2	14	0	
2	15	0	
2	16	0	
2	17	0	
2	18	0	
2	19	0	
2	20	0	
2	21	0	
2	22	0	
2	23	0	
2	24	0	
2	25	0	
2	26	0	
2	27	0	
2	28	0	
2	29	0	
2	30	0	
2	31	0	
2	32	0	
2	33	0	
2	34	0	
2	35	0	
2	36	0	
2	37	0	
2	38	0	
2	39	0	
2	40	0	
2	41	0	
2	42	0	
2	43	0	
2	44	0	
2	45	0	
2	46	0	
2	47	0	
2	48	0	
2	49	0	
2	50	0	
2	51	0	
2	52	0	
2	53	0	
2	54	0	
2	55	0	
2	56	0	
2	57	0	
2	58	0	
2	59	0	
2	60	0	
2	61	0	
2	62	0	
2	63	0	
2	64	0	
2	65	0	
2	66	0	
2	67	0	
2	68	0	
2	69	0	
2	70	0	
2	71	0	
2	72	0	
2	73	0	
2	74	0	
2	75	0	
2	76	0	
2	77	0	
2	78	0	
2	79	0	
2	80	0	
2	81	0	
2	82	0	
2	83	0	
2	84	0	
2	85	0	
2	86	0	
2	87	0	
2	88	0	
2	89	0	
2	90	0	
2	91	0	
2	92	0	
2	93	0	
2	94	0	
2	95	0	
2	96	0	
2	97	0	
2	98	0	
2	99	0	
2	100	0	
3	0	0	
3	1	0	
3	2	0	
3	3	0	
3	4	0	
3	5	0	
3	6	0	
3	7	0	
3	8	0	
3	9	0	
3	10	0	
3	11	0	
3	12	0	
3	13	0	
3	14	0	
3	15	0	
3	16	0	
3	17	0	
3	18	0	
3	19	0	
3	20	0	
3	21	0	
3	22	0	
3	23	0	
3	24	0	
3	25	0	
3	26	0	
3	27	0	
3	28	0	
3	29	0	
3	30	0	
3	31	0	
3	32	0	
3	33	0	
3	34	0	
3	35	0	
3	36	0	
3	37	0	
3	38	0	
3	39	0	
3	40	0	
3	41	0	
3	42	0	
3	43	0	
3	44	0	
3	45	0	
3	46	0	
3	47	0	
3	48	0	
3	49	0	
3	50	0	
3	51	0	
3	52	0	
3	53	0	
3	54	0	
3	55	0	
3	56	0	
3	57	0	
3	58	0	
3	59	0	
3	60	0	
3	61	0	
3	62	0	
3	63	0	
3	64	0	
3	65	0	
3	66	0	
3	67	0	
3	68	0	
3	69	0	
3	70	0	
3	71	0	
3	72	0	
3	73	0	
3	74	0	
3	75	0	
3	76	0	
3	77	0	
3	78	0	
3	79	0	
3	80	0	
3	81	0	
3	82	0	
3	83	0	
3	84	0	
3	85	0	
3	86	0	
3	87	0	
3	88	0	
3	89	0	
3	90	0	
3	91	0	
3	92	0	
3	93	0	
3	94	0	
3	95	0	
3	96	0	
3	97	0	
3	98	0	
3	99	0	
3	100	0	
4	0	0	
4	1	0	
4	2	0	
4	3	0	
4	4	0	
4	5	0	
4	6	0	
4	7	0	
4	8	0	
4	9	0	
4	10	0	
4	11	0	
4	12	0	
4	13	0	
4	14	0	
4	15	0	
4	16	0	
4	17	0	
4	18	0	
4	19	0	
4	20	0	
4	21	0	
4	22	0	
4	23	0	
4	24	0	
4	25	0	
4	26	0	
4	27	0	
4	28	0	
4	29	0	
4	30	0	
4	31	0	
4	32	0	
4	33	0	
4	34	0	
4	35	0	
4	36	0	
4	37	0	
4	38	0	
4	39	0	
4	40	0	
4	41	0	
4	42	0	
4	43	0	
4	44	0	
4	45	0	
4	46	0	
4	47	0	
4	48	0	
4	49	0	
4	50	0	
4	51	0	
4	52	0	
4	53	0	
4	54	0	
4	55	0	
4	56	0	
4	57	0	
4	58	0	
4	59	0	
4	60	0	
4	61	0	
4	62	0	
4	63	0	
4	64	0	
4	65	0	
4	66	0	
4	67	0	
4	68	0	
4	69	0	
4	70	0	
4	71	0	
4	72	0	
4	73	0	
4	74	0	
4	75	0	
4	76	0	
4	77	0	
4	78	0	
4	79	0	
4	80	0	
4	81	0	
4	82	0	
4	83	0	
4	84	0	
4	85	0	
4	86	0	
4	87	0	
4	88	0	
4	89	0	
4	90	0	
4	91	0	
4	92	0	
4	93	0	
4	94	0	
4	95	0	
4	96	0	
4	97	0	
4	98	0	
4	99	0	
4	100	0	
5	0	0	
5	1	0	
5	2	0	
5	3	0	
5	4	0	
5	5	0	
5	6	0	
5	7	0	
5	8	0	
5	9	0	
5	10	0	
5	11	0	
5	12	0	
5	13	0	
5	14	0	
5	15	0	
5	16	0	
5	17	0	
5	18	0	
5	19	0	
5	20	0	
5	21	0	
5	22	0	
5	23	0	
5	24	0	
5	25	0	
5	26	0	
5	27	0	
5	28	0	
5	29	0	
5	30	0	
5	31	0	
5	32	0	
5	33	0	
5	34	0	
5	35	0	
5	36	0	
5	37	0	
5	38	0	
5	39	0	
5	40	0	
5	41	0	
5	42	0	
5	43	0	
5	44	0	
5	45	0	
5	46	0	
5	47	0	
5	48	0	
5	49	0	
5	50	0	
5	51	0	
5	52	0	
5	53	0	
5	54	0	
5	55	0	
5	56	0	
5	57	0	
5	58	0	
5	59	0	
5	60	0	
5	61	0	
5	62	0	
5	63	0	
5	64	0	
5	65	0	
5	66	0	
5	67	0	
5	68	0	
5	69	0	
5	70	0	
5	71	0	
5	72	0	
5	73	0	
5	74	0	
5	75	0	
5	76	0	
5	77	0	
5	78	0	
5	79	0	
5	80	0	
5	81	0	
5	82	0	
5	83	0	
5	84	0	
5	85	0	
5	86	0	
5	87	0	
5	88	0	
5	89	0	
5	90	0	
5	91	0	
5	92	0	
5	93	0	
5	94	0	
5	95	0	
5	96	0	
5	97	0	
5	98	0	
5	99	0	
5	100	0	
6	0	0	
6	1	0	
6	2	0	
6	3	0	
6	4	0	
6	5	0	
6	6	0	
6	7	0	
6	8	0	
6	9	0	
6	10	0	
6	11	0	
6	12	0	
6	13	0	
6	14	0	
6	15	0	
6	16	0	
6	17	0	
6	18	0	
6	19	0	
6	20	0	
6	21	0	
6	22	0	
6	23	0	
6	24	0	
6	25	0	
6	26	0	
6	27	0	
6	28	0	
6	29	0	
6	30	0	
6	31	0	
6	32	0	
6	33	0	
6	34	0	
6	35	0	
6	36	0	
6	37	0	
6	38	0	
6	39	0	
6	40	0	
6	41	0	
6	42	0	
6	43	0	
6	44	0	
6	45	0	
6	46	0	
6	47	0	
6	48	0	
6	49	0	
6	50	0	
6	51	0	
6	52	0	
6	53	0	
6	54	0	
6	55	0	
6	56	0	
6	57	0	
6	58	0	
6	59	0	
6	60	0	
6	61	0	
6	62	0	
6	63	0	
6	64	0	
6	65	0	
6	66	0	
6	67	0	
6	68	0	
6	69	0	
6	70	0	
6	71	0	
6	72	0	
6	73	0	
6	74	0	
6	75	0	
6	76	0	
6	77	0	
6	78	0	
6	79	0	
6	80	0	
6	81	0	
6	82	0	
6	83	0	
6	84	0	
6	85	0	
6	86	0	
6	87	0	
6	88	0	
6	89	0	
6	90	0	
6	91	0	
6	92	0	
6	93	0	
6	94	0	
6	95	0	
6	96	0	
6	97	0	
6	98	0	
6	99	0	
6	100	0	
7	0	0	
7	1	0	
7	2	0	
7	3	0	
7	4	0	
7	5	0	
7	6	0	
7	7	0	
7	8	0	
7	9	0	
7	10	0	
7	11	0	
7	12	0	
7	13	0	
7	14	0	
7	15	0	
7	16	0	
7	17	0	
7	18	0	
7	19	0	
7	20	0	
7	21	0	
7	22	0	
7	23	0	
7	24	0	
7	25	0	
7	26	0	
7	27	0	
7	28	0	
7	29	0	
7	30	0	
7	31	0	
7	32	0	
7	33	0	
7	34	0	
7	35	0	
7	36	0	
7	37	0	
7	38	0	
7	39	0	
7	40	0	
7	41	0	
7	42	0	
7	43	0	
7	44	0	
7	45	0	
7	46	0	
7	47	0	
7	48	0	
7	49	0	
7	50	0	
7	51	0	
7	52	0	
7	53	0	
7	54	0	
7	55	0	
7	56	0	
7	57	0	
7	58	0	
7	59	0	
7	60	0	
7	61	0	
7	62	0	
7	63	0	
7	64	0	
7	65	0	
7	66	0	
7	67	0	
7	68	0	
7	69	0	
7	70	0	
7	71	0	
7	72	0	
7	73	0	
7	74	0	
7	75	0	
7	76	0	
7	77	0	
7	78	0	
7	79	0	
7	80	0	
7	81	0	
7	82	0	
7	83	0	
7	84	0	
7	85	0	
7	86	0	
7	87	0	
7	88	0	
7	89	0	
7	90	0	
7	91	0	
7	92	0	
7	93	0	
7	94	0	
7	95	0	
7	96	0	
7	97	0	
7	98	0	
7	99	0	
7	100	0	
8	0	0	
8	1	0	
8	2	0	
8	3	0	
8	4	0	
8	5	0	
8	6	0	
8	7	0	
8	8	0	
8	9	0	
8	10	0	
8	11	0	
8	12	0	
8	13	0	
8	14	0	
8	15	0	
8	16	0	
8	17	0	
8	18	0	
8	19	0	
8	20	0	
8	21	0	
8	22	0	
8	23	0	
8	24	0	
8	25	0	
8	26	0	
8	27	0	
8	28	0	
8	29	0	
8	30	0	
8	31	0	
8	32	0	
8	33	0	
8	34	0	
8	35	0	
8	36	0	
8	37	0	
8	38	0	
8	39	0	
8	40	0	
8	41	0	
8	42	0	
8	43	0	
8	44	0	
8	45	0	
8	46	0	
8	47	0	
8	48	0	
8	49	0	
8	50	0	
8	51	0	
8	52	0	
8	53	0	
8	54	0	
8	55	0	
8	56	0	
8	57	0	
8	58	0	
8	59	0	
8	60	0	
8	61	0	
8	62	0	
8	63	0	
8	64	0	
8	65	0	
8	66	0	
8	67	0	
8	68	0	
8	69	0	
8	70	0	
8	71	0	
8	72	0	
8	73	0	
8	74	0	
8	75	0	
8	76	0	
8	77	0	
8	78	0	
8	79	0	
8	80	0	
8	81	0	
8	82	0	
8	83	0	
8	84	0	
8	85	0	
8	86	0	
8	87	0	
8	88	0	
8	89	0	
8	90	0	
8	91	0	
8	92	0	
8	93	0	
8	94	0	
8	95	0	
8	96	0	
8	97	0	
8	98	0	
8	99	0	
8	100	0	
9	0	0	
9	1	0	
9	2	0	
9	3	0	
9	4	0	
9	5	0	
9	6	0	
9	7	0	
9	8	0	
9	9	0	
9	10	0	
9	11	0	
9	12	0	
9	13	0	
9	14	0	
9	15	0	
9	16	0	
9	17	0	
9	18	0	
9	19	0	
9	20	0	
9	21	0	
9	22	0	
9	23	0	
9	24	0	
9	25	0	
9	26	0	
9	27	0	
9	28	0	
9	29	0	
9	30	0	
9	31	0	
9	32	0	
9	33	0	
9	34	0	
9	35	0	
9	36	0	
9	37	0	
9	38	0	
9	39	0	
9	40	0	
9	41	0	
9	42	0	
9	43	0	
9	44	0	
9	45	0	
9	46	0	
9	47	0	
9	48	0	
9	49	0	
9	50	0	
9	51	0	
9	52	0	
9	53	0	
9	54	0	
9	55	0	
9	56	0	
9	57	0	
9	58	0	
9	59	0	
9	60	0	
9	61	0	
9	62	0	
9	63	0	
9	64	0	
9	65	0	
9	66	0	
9	67	0	
9	68	0	
9	69	0	
9	70	0	
9	71	0	
9	72	0	
9	73	0	
9	74	0	
9	75	0	
9	76	0	
9	77	0	
9	78	0	
9	79	0	
9	80	0	
9	81	0	
9	82	0	
9	83	0	
9	84	0	
9	85	0	
9	86	0	
9	87	0	
9	88	0	
9	89	0	
9	90	0	
9	91	0	
9	92	0	
9	93	0	
9	94	0	
9	95	0	
9	96	0	
9	97	0	
9	98	0	
9	99	0	
9	100	0	
10	0	0	
10	1	0	
10	2	0	
10	3	0	
10	4	0	
10	5	0	
10	6	0	
10	7	0	
10	8	0	
10	9	0	
10	10	0	
10	11	0	
10	12	0	
10	13	0	
10	14	0	
10	15	0	
10	16	0	
10	17	0	
10	18	0	
10	19	0	
10	20	0	
10	21	0	
10	22	0	
10	23	0	
10	24	0	
10	25	0	
10	26	0	
10	27	0	
10	28	0	
10	29	0	
10	30	0	
10	31	0	
10	32	0	
10	33	0	
10	34	0	
10	35	0	
10	36	0	
10	37	0	
10	38	0	
10	39	0	
10	40	0	
10	41	0	
10	42	0	
10	43	0	
10	44	0	
10	45	0	
10	46	0	
10	47	0	
10	48	0	
10	49	0	
10	50	0	
10	51	0	
10	52	0	
10	53	0	
10	54	0	
10	55	0	
10	56	0	
10	57	0	
10	58	0	
10	59	0	
10	60	0	
10	61	0	
10	62	0	
10	63	0	
10	64	0	
10	65	0	
10	66	0	
10	67	0	
10	68	0	
10	69	0	
10	70	0	
10	71	0	
10	72	0	
10	73	0	
10	74	0	
10	75	0	
10	76	0	
10	77	0	
10	78	0	
10	79	0	
10	80	0	
10	81	0	
10	82	0	
10	83	0	
10	84	0	
10	85	0	
10	86	0	
10	87	0	
10	88	0	
10	89	0	
10	90	0	
10	91	0	
10	92	0	
10	93	0	
10	94	0	
10	95	0	
10	96	0	
10	97	0	
10	98	0	
10	99	0	
10	100	0	
11	0	0	
11	1	0	
11	2	0	
11	3	0	
11	4	0	
11	5	0	
11	6	0	
11	7	0	
11	8	0	
11	9	0	
11	10	0	
11	11	0	
11	12	0	
11	13	0	
11	14	0	
11	15	0	
11	16	0	
11	17	0	
11	18	0	
11	19	0	
11	20	0	
11	21	0	
11	22	0	
11	23	0	
11	24	0	
11	25	0	
11	26	0	
11	27	0	
11	28	0	
11	29	0	
11	30	0	
11	31	0	
11	32	0	
11	33	0	
11	34	0	
11	35	0	
11	36	0	
11	37	0	
11	38	0	
11	39	0	
11	40	0	
11	41	0	
11	42	0	
11	43	0	
11	44	0	
11	45	0	
11	46	0	
11	47	0	
11	48	0	
11	49	0	
11	50	0	
11	51	0	
11	52	0	
11	53	0	
11	54	0	
11	55	0	
11	56	0	
11	57	0	
11	58	0	
11	59	0	
11	60	0	
11	61	0	
11	62	0	
11	63	0	
11	64	0	
11	65	0	
11	66	0	
11	67	0	
11	68	0	
11	69	0	
11	70	0	
11	71	0	
11	72	0	
11	73	0	
11	74	0	
11	75	0	
11	76	0	
11	77	0	
11	78	0	
11	79	0	
11	80	0	
11	81	0	
11	82	0	
11	83	0	
11	84	0	
11	85	0	
11	86	0	
11	87	0	
11	88	0	
11	89	0	
11	90	0	
11	91	0	
11	92	0	
11	93	0	
11	94	0	
11	95	0	
11	96	0	
11	97	0	
11	98	0	
11	99	0	
11	100	0	
12	0	0	
12	1	0	
12	2	0	
12	3	0	
12	4	0	
12	5	0	
12	6	0	
12	7	0	
12	8	0	
12	9	0	
12	10	0	
12	11	0	
12	12	0	
12	13	0	
[...]
POINT_DATA	30401
VECTORS d float
-8.35441e-018	-1.50836e-017	0	
-4.50706e-007	-4.60579e-007	0	
-7.82528e-007	-7.28767e-007	0	
-1.07635e-006	-9.34645e-007	0	
-1.3412e-006	-1.10111e-006	0	
-1.58374e-006	-1.23395e-006	0	
-1.80313e-006	-1.3362e-006	0	
-1.99484e-006	-1.40432e-006	0	
-2.14704e-006	-1.43737e-006	0	
-2.252e-006	-1.44723e-006	0	
-2.38477e-006	-1.4864e-006	0	
-2.51001e-006	-1.52835e-006	0	
-2.60707e-006	-1.56195e-006	0	
-2.8085e-006	-1.74085e-006	0	
-2.91915e-006	-1.88542e-006	0	
-3.07226e-006	-2.02046e-006	0	
-3.19117e-006	-2.12662e-006	0	
-3.28382e-006	-2.25122e-006	0	
-3.38046e-006	-2.37836e-006	0	
-3.47684e-006	-2.5048e-006	0	
-3.56515e-006	-2.63108e-006	0	
-3.65086e-006	-2.75464e-006	0	
-3.73298e-006	-2.88001e-006	0	
-3.80781e-006	-3.00011e-006	0	
-3.87829e-006	-3.11724e-006	0	
-3.93979e-006	-3.23536e-006	0	
-3.99223e-006	-3.3484e-006	0	
-4.03921e-006	-3.46389e-006	0	
-4.07821e-006	-3.57977e-006	0	
-4.11257e-006	-3.69264e-006	0	
-4.1426e-006	-3.8088e-006	0	
-4.16701e-006	-3.92173e-006	0	
-4.18749e-006	-4.03406e-006	0	
-4.20276e-006	-4.14683e-006	0	
-4.21437e-006	-4.25652e-006	0	
-4.22156e-006	-4.36635e-006	0	
-4.22376e-006	-4.47427e-006	0	
-4.22132e-006	-4.58103e-006	0	
-4.21376e-006	-4.68666e-006	0	
-4.20285e-006	-4.79037e-006	0	
-4.18673e-006	-4.89428e-006	0	
-4.1664e-006	-4.99589e-006	0	
-4.14302e-006	-5.09787e-006	0	
-4.1145e-006	-5.19811e-006	0	
-4.08368e-006	-5.29611e-006	0	
-4.04973e-006	-5.39535e-006	0	
-4.01198e-006	-5.49089e-006	0	
-3.97174e-006	-5.58676e-006	0	
-3.92806e-006	-5.6811e-006	0	
-3.88224e-006	-5.77231e-006	0	
-3.83307e-006	-5.86347e-006	0	
-3.78135e-006	-5.95137e-006	0	
-3.72764e-006	-6.03853e-006	0	
-3.67037e-006	-6.12361e-006	0	
-3.61185e-006	-6.20653e-006	0	
-3.55024e-006	-6.28713e-006	0	
-3.48661e-006	-6.36518e-006	0	
-3.42073e-006	-6.44212e-006	0	
-3.35233e-006	-6.51491e-006	0	
-3.28269e-006	-6.58686e-006	0	
-3.20933e-006	-6.65531e-006	0	
-3.13445e-006	-6.71987e-006	0	
-3.05759e-006	-6.78405e-006	0	
-2.97686e-006	-6.84215e-006	0	
-2.89519e-006	-6.89876e-006	0	
-2.81018e-006	-6.95265e-006	0	
-2.72222e-006	-7.00009e-006	0	
-2.63299e-006	-7.04812e-006	0	
-2.53938e-006	-7.09082e-006	0	
-2.44245e-006	-7.12915e-006	0	
-2.34278e-006	-7.16743e-006	0	
-2.23926e-006	-7.19791e-006	0	
-2.13241e-006	-7.22633e-006	0	
-2.02147e-006	-7.25328e-006	0	
-1.90715e-006	-7.27346e-006	0	
-1.78865e-006	-7.29308e-006	0	
-1.66512e-006	-7.30865e-006	0	
-1.53806e-006	-7.31921e-006	0	
-1.40652e-006	-7.3297e-006	0	
-1.26965e-006	-7.33538e-006	0	
-1.12828e-006	-7.33827e-006	0	
-9.81674e-007	-7.34053e-006	0	
-8.30579e-007	-7.33773e-006	0	
-6.74776e-007	-7.33357e-006	0	
-5.12813e-007	-7.32871e-006	0	
-3.46845e-007	-7.32082e-006	0	
-1.76428e-007	-7.31305e-006	0	
5.01486e-010	-7.304e-006	0	
1.81354e-007	-7.29334e-006	0	
3.66111e-007	-7.28353e-006	0	
5.55578e-007	-7.27278e-006	0	
7.48564e-007	-7.26249e-006	0	
9.46107e-007	-7.25384e-006	0	
1.14701e-006	-7.24479e-006	0	
1.34905e-006	-7.23724e-006	0	
1.55423e-006	-7.23144e-006	0	
1.76095e-006	-7.22622e-006	0	
1.96728e-006	-7.22332e-006	0	
2.17511e-006	-7.22198e-006	0	
2.38201e-006	-7.2207e-006	0	
2.58739e-006	-7.22173e-006	0	
-2.52599e-018	-5.01773e-018	0	
-3.44893e-007	-2.51397e-007	0	
-6.85088e-007	-4.91991e-007	0	
-9.95184e-007	-7.07092e-007	0	
-1.2743e-006	-8.86732e-007	0	
-1.52874e-006	-1.0384e-006	0	
-1.7593e-006	-1.16574e-006	0	
-1.96272e-006	-1.27195e-006	0	
-2.12719e-006	-1.36684e-006	0	
-2.27584e-006	-1.48365e-006	0	
-2.45136e-006	-1.59816e-006	0	
-2.57692e-006	-1.64279e-006	0	
-2.64378e-006	-1.65055e-006	0	
-2.74919e-006	-1.69219e-006	0	
-2.82624e-006	-1.71872e-006	0	
-3.01604e-006	-1.87078e-006	0	
-3.14493e-006	-2.01997e-006	0	
-3.22401e-006	-2.15105e-006	0	
-3.32705e-006	-2.28335e-006	0	
-3.4208e-006	-2.41315e-006	0	
-3.51046e-006	-2.54471e-006	0	
-3.59663e-006	-2.67419e-006	0	
-3.67918e-006	-2.80309e-006	0	
-3.75581e-006	-2.92986e-006	0	
-3.8264e-006	-3.05482e-006	0	
-3.88877e-006	-3.17791e-006	0	
-3.94217e-006	-3.29958e-006	0	
-3.98844e-006	-3.42145e-006	0	
-4.0282e-006	-3.54224e-006	0	
-4.06259e-006	-3.66209e-006	0	
-4.09229e-006	-3.78196e-006	0	
-4.11758e-006	-3.90044e-006	0	
-4.13832e-006	-4.01818e-006	0	
-4.15441e-006	-4.13476e-006	0	
-4.16648e-006	-4.24916e-006	0	
-4.17384e-006	-4.36301e-006	0	
-4.17664e-006	-4.47598e-006	0	
-4.17479e-006	-4.58721e-006	0	
-4.16811e-006	-4.69702e-006	0	
-4.15714e-006	-4.80544e-006	0	
-4.14173e-006	-4.91285e-006	0	
-4.12223e-006	-5.01946e-006	0	
-4.09904e-006	-5.12485e-006	0	
-4.07178e-006	-5.22858e-006	0	
-4.04119e-006	-5.331e-006	0	
-4.00741e-006	-5.43215e-006	0	
-3.9704e-006	-5.5319e-006	0	
-3.93066e-006	-5.63053e-006	0	
-3.88791e-006	-5.72721e-006	0	
-3.84235e-006	-5.82186e-006	0	
-3.79408e-006	-5.91504e-006	0	
-3.74318e-006	-6.00658e-006	0	
-3.68997e-006	-6.09614e-006	0	
-3.63393e-006	-6.18368e-006	0	
-3.57583e-006	-6.26912e-006	0	
-3.51546e-006	-6.35219e-006	0	
-3.45291e-006	-6.43328e-006	0	
-3.38811e-006	-6.51171e-006	0	
-3.32093e-006	-6.58747e-006	0	
-3.25213e-006	-6.66154e-006	0	
-3.18048e-006	-6.73243e-006	0	
-3.10633e-006	-6.79981e-006	0	
-3.03072e-006	-6.86501e-006	0	
-2.95183e-006	-6.92709e-006	0	
-2.87094e-006	-6.98622e-006	0	
-2.7879e-006	-7.04207e-006	0	
-2.70129e-006	-7.09399e-006	0	
-2.61252e-006	-7.14369e-006	0	
-2.52088e-006	-7.18991e-006	0	
-2.42538e-006	-7.23227e-006	0	
-2.32736e-006	-7.27193e-006	0	
-2.22569e-006	-7.30744e-006	0	
-2.11978e-006	-7.33974e-006	0	
-2.01076e-006	-7.36911e-006	0	
-1.89767e-006	-7.39457e-006	0	
-1.78016e-006	-7.41777e-006	0	
-1.65872e-006	-7.43732e-006	0	
-1.53253e-006	-7.45293e-006	0	
-1.40167e-006	-7.46663e-006	0	
-1.26644e-006	-7.47718e-006	0	
-1.12631e-006	-7.48515e-006	0	
-9.81013e-007	-7.49121e-006	0	
-8.3077e-007	-7.49409e-006	0	
-6.75457e-007	-7.49497e-006	0	
-5.14852e-007	-7.49433e-006	0	
-3.49303e-007	-7.49185e-006	0	
-1.78691e-007	-7.48846e-006	0	
-2.80471e-009	-7.48356e-006	0	
1.77376e-007	-7.47735e-006	0	
3.62366e-007	-7.47108e-006	0	
5.52424e-007	-7.4645e-006	0	
7.45896e-007	-7.45765e-006	0	
9.43105e-007	-7.45152e-006	0	
1.14399e-006	-7.44553e-006	0	
1.34692e-006	-7.43993e-006	0	
1.55232e-006	-7.43566e-006	0	
1.75936e-006	-7.43209e-006	0	
1.9666e-006	-7.42943e-006	0	
2.17432e-006	-7.42803e-006	0	
2.38138e-006	-7.42727e-006	0	
2.58772e-006	-7.4266e-006	0	
-1.65334e-018	-3.8465e-018	0	
-2.93523e-007	-1.80958e-007	0	
-6.15096e-007	-3.76039e-007	0	
-9.23083e-007	-5.67743e-007	0	
-1.2073e-006	-7.44653e-007	0	
-1.46762e-006	-9.0521e-007	0	
-1.70322e-006	-1.05077e-006	0	
-1.91121e-006	-1.18453e-006	0	
-2.08897e-006	-1.30731e-006	0	
-2.25297e-006	-1.41904e-006	0	
-2.41965e-006	-1.52297e-006	0	
-2.55859e-006	-1.61981e-006	0	
-2.67601e-006	-1.71998e-006	0	
-2.80607e-006	-1.80213e-006	0	
-2.84981e-006	-1.81047e-006	0	
-2.95186e-006	-1.86468e-006	0	
-3.09275e-006	-1.96265e-006	0	
-3.12386e-006	-1.98919e-006	0	
-3.27452e-006	-2.17841e-006	0	
-3.3587e-006	-2.32349e-006	0	
-3.45466e-006	-2.46178e-006	0	
-3.53929e-006	-2.59709e-006	0	
-3.62237e-006	-2.73214e-006	0	
-3.70081e-006	-2.86448e-006	0	
-3.77274e-006	-2.99565e-006	0	
-3.83563e-006	-3.12437e-006	0	
-3.8892e-006	-3.25218e-006	0	
-3.93507e-006	-3.38003e-006	0	
-3.975e-006	-3.50696e-006	0	
-4.00998e-006	-3.63294e-006	0	
-4.03977e-006	-3.75796e-006	0	
-4.06545e-006	-3.88166e-006	0	
-4.08702e-006	-4.00419e-006	0	
-4.10405e-006	-4.1256e-006	0	
-4.11666e-006	-4.2453e-006	0	
-4.12427e-006	-4.36362e-006	0	
-4.12742e-006	-4.4807e-006	0	
-4.12644e-006	-4.59591e-006	0	
-4.12062e-006	-4.71006e-006	0	
-4.10979e-006	-4.82316e-006	0	
-4.09517e-006	-4.93475e-006	0	
-4.07632e-006	-5.04531e-006	0	
-4.05316e-006	-5.15427e-006	0	
-4.02689e-006	-5.26182e-006	0	
-3.99713e-006	-5.3684e-006	0	
-3.96368e-006	-5.47312e-006	0	
-3.92725e-006	-5.57662e-006	0	
-3.88834e-006	-5.67819e-006	0	
-3.84626e-006	-5.77757e-006	0	
-3.80118e-006	-5.87563e-006	0	
-3.75381e-006	-5.97178e-006	0	
-3.70354e-006	-6.06612e-006	0	
-3.65123e-006	-6.15838e-006	0	
-3.59654e-006	-6.24862e-006	0	
-3.53898e-006	-6.33674e-006	0	
-3.47937e-006	-6.42278e-006	0	
-3.41815e-006	-6.50684e-006	0	
-3.35437e-006	-6.58787e-006	0	
-3.28799e-006	-6.66646e-006	0	
-3.22001e-006	-6.74272e-006	0	
-3.15001e-006	-6.8157e-006	0	
-3.07744e-006	-6.88595e-006	0	
-3.00262e-006	-6.95388e-006	0	
-2.92521e-006	-7.01869e-006	0	
-2.84565e-006	-7.08086e-006	0	
-2.76382e-006	-7.1401e-006	0	
-2.67889e-006	-7.19541e-006	0	
-2.59115e-006	-7.2478e-006	0	
-2.50073e-006	-7.29691e-006	0	
-2.40718e-006	-7.34233e-006	0	
-2.31029e-006	-7.38501e-006	0	
-2.20971e-006	-7.42434e-006	0	
-2.10575e-006	-7.46067e-006	0	
-1.99829e-006	-7.49386e-006	0	
-1.88617e-006	-7.52325e-006	0	
-1.76994e-006	-7.55011e-006	0	
-1.6501e-006	-7.57365e-006	0	
-1.52537e-006	-7.59361e-006	0	
-1.39555e-006	-7.61142e-006	0	
-1.26132e-006	-7.62614e-006	0	
-1.12257e-006	-7.63824e-006	0	
-9.78335e-007	-7.64809e-006	0	
-8.28721e-007	-7.65545e-006	0	
-6.74457e-007	-7.6612e-006	0	
-5.14994e-007	-7.6648e-006	0	
-3.49988e-007	-7.66617e-006	0	
-1.79718e-007	-7.66639e-006	0	
-4.53727e-009	-7.66569e-006	0	
1.75109e-007	-7.66341e-006	0	
3.60112e-007	-7.66014e-006	0	
5.50211e-007	-7.65667e-006	0	
7.43615e-007	-7.65282e-006	0	
9.40609e-007	-7.64884e-006	0	
1.14159e-006	-7.64495e-006	0	
1.34529e-006	-7.6414e-006	0	
1.55102e-006	-7.6386e-006	0	
1.75818e-006	-7.63603e-006	0	
1.96605e-006	-7.6339e-006	0	
2.17411e-006	-7.63287e-006	0	
2.38118e-006	-7.63217e-006	0	
2.58638e-006	-7.63175e-006	0	
-1.63988e-018	-3.42773e-018	0	
-2.76324e-007	-1.55526e-007	0	
-5.73145e-007	-3.20185e-007	0	
-8.67687e-007	-4.89911e-007	0	
-1.14753e-006	-6.57663e-007	0	
-1.40703e-006	-8.18812e-007	0	
-1.64358e-006	-9.71812e-007	0	
-1.85523e-006	-1.1161e-006	0	
-2.04347e-006	-1.24993e-006	0	
-2.21678e-006	-1.37254e-006	0	
-2.38039e-006	-1.48864e-006	0	
-2.52754e-006	-1.5999e-006	0	
-2.65984e-006	-1.70338e-006	0	
-2.78532e-006	-1.80944e-006	0	
-2.88554e-006	-1.927e-006	0	
-3.03469e-006	-2.05856e-006	0	
-3.11798e-006	-2.10385e-006	0	
-3.14818e-006	-2.11491e-006	0	
-3.21402e-006	-2.15782e-006	0	
-3.25941e-006	-2.1903e-006	0	
-3.40136e-006	-2.37321e-006	0	
-3.47511e-006	-2.51996e-006	0	
-3.56446e-006	-2.66339e-006	0	
-3.64238e-006	-2.80296e-006	0	
-3.71722e-006	-2.94135e-006	0	
-3.78204e-006	-3.07414e-006	0	
-3.83366e-006	-3.20764e-006	0	
-3.87873e-006	-3.34172e-006	0	
-3.91883e-006	-3.47491e-006	0	
-3.95445e-006	-3.60676e-006	0	
-3.98512e-006	-3.73686e-006	0	
-4.01157e-006	-3.86547e-006	0	
-4.03342e-006	-3.99249e-006	0	
-4.05101e-006	-4.11867e-006	0	
-4.06446e-006	-4.24383e-006	0	
-4.07282e-006	-4.36701e-006	0	
-4.07663e-006	-4.48857e-006	0	
-4.07634e-006	-4.60822e-006	0	
-4.07112e-006	-4.72665e-006	0	
-4.06076e-006	-4.84422e-006	0	
-4.04696e-006	-4.96003e-006	0	
-4.02873e-006	-5.07442e-006	0	
-4.00578e-006	-5.18719e-006	0	
-3.97999e-006	-5.2988e-006	0	
-3.95081e-006	-5.40916e-006	0	
-3.91819e-006	-5.51746e-006	0	
-3.88254e-006	-5.62448e-006	0	
-3.84412e-006	-5.72958e-006	0	
-3.80278e-006	-5.83243e-006	0	
-3.75858e-006	-5.93387e-006	0	
-3.71198e-006	-6.0332e-006	0	
-3.66265e-006	-6.13037e-006	0	
-3.61114e-006	-6.22573e-006	0	
-3.55755e-006	-6.31904e-006	0	
-3.50099e-006	-6.4099e-006	0	
-3.4421e-006	-6.49857e-006	0	
-3.38163e-006	-6.58521e-006	0	
-3.31903e-006	-6.66932e-006	0	
-3.25373e-006	-6.75102e-006	0	
-3.18656e-006	-6.82996e-006	0	
-3.11788e-006	-6.9058e-006	0	
-3.04673e-006	-6.97939e-006	0	
-2.97298e-006	-7.0504e-006	0	
-2.89713e-006	-7.11798e-006	0	
-2.8188e-006	-7.18276e-006	0	
-2.73796e-006	-7.24485e-006	0	
-2.65452e-006	-7.30347e-006	0	
-2.56842e-006	-7.359e-006	0	
-2.47931e-006	-7.41124e-006	0	
-2.38698e-006	-7.46042e-006	0	
-2.29131e-006	-7.50676e-006	0	
-2.19205e-006	-7.54945e-006	0	
-2.08967e-006	-7.58921e-006	0	
-1.98383e-006	-7.62612e-006	0	
-1.87304e-006	-7.65937e-006	0	
-1.758e-006	-7.68978e-006	0	
-1.63947e-006	-7.71708e-006	0	
-1.51612e-006	-7.74146e-006	0	
-1.38779e-006	-7.76321e-006	0	
-1.25495e-006	-7.78182e-006	0	
-1.117e-006	-7.79797e-006	0	
-9.7368e-007	-7.81165e-006	0	
-8.25339e-007	-7.82274e-006	0	
-6.7217e-007	-7.83179e-006	0	
-5.13414e-007	-7.83887e-006	0	
-3.49298e-007	-7.84413e-006	0	
-1.79951e-007	-7.8477e-006	0	
-5.24595e-009	-7.85001e-006	0	
1.74568e-007	-7.85126e-006	0	
3.59195e-007	-7.85108e-006	0	
5.48203e-007	-7.85018e-006	0	
7.41462e-007	-7.84864e-006	0	
9.3879e-007	-7.84673e-006	0	
1.1397e-006	-7.84482e-006	0	
1.34369e-006	-7.84282e-006	0	
1.54979e-006	-7.84093e-006	0	
1.7571e-006	-7.83927e-006	0	
1.96541e-006	-7.83781e-006	0	
2.17433e-006	-7.83707e-006	0	
2.38191e-006	-7.837e-006	0	
2.588e-006	-7.83725e-006	0	
-1.64805e-018	-3.17488e-018	0	
-2.67185e-007	-1.43321e-007	0	
-5.4677e-007	-2.92959e-007	0	
-8.26832e-007	-4.49022e-007	0	
-1.09729e-006	-6.07994e-007	0	
-1.35181e-006	-7.66053e-007	0	
-1.58684e-006	-9.20394e-007	0	
-1.80093e-006	-1.06881e-006	0	
-1.99531e-006	-1.20944e-006	0	
-2.17383e-006	-1.34196e-006	0	
-2.33894e-006	-1.46833e-006	0	
-2.48976e-006	-1.58977e-006	0	
-2.62743e-006	-1.70627e-006	0	
-2.7534e-006	-1.81934e-006	0	
-2.87195e-006	-1.92723e-006	0	
-3.00279e-006	-2.03488e-006	0	
-3.10208e-006	-2.13491e-006	0	
-3.18745e-006	-2.23839e-006	0	
-3.27311e-006	-2.3117e-006	0	
-3.28298e-006	-2.32113e-006	0	
-3.33793e-006	-2.36891e-006	0	
-3.36777e-006	-2.4016e-006	0	
-3.50886e-006	-2.58526e-006	0	
-3.57587e-006	-2.73937e-006	0	
-3.66392e-006	-2.88985e-006	0	
-3.72805e-006	-3.02662e-006	0	
-3.77509e-006	-3.16743e-006	0	
-3.81961e-006	-3.30794e-006	0	
-3.86055e-006	-3.44607e-006	0	
-3.89647e-006	-3.58308e-006	0	
-3.92805e-006	-3.71857e-006	0	
-3.95553e-006	-3.85261e-006	0	
-3.97791e-006	-3.98473e-006	0	
-3.99576e-006	-4.11571e-006	0	
-4.00991e-006	-4.24538e-006	0	
-4.01958e-006	-4.37323e-006	0	
-4.0243e-006	-4.49957e-006	0	
-4.02454e-006	-4.62397e-006	0	
-4.01974e-006	-4.74697e-006	0	
-4.01005e-006	-4.86859e-006	0	
-3.99676e-006	-4.98846e-006	0	
-3.97922e-006	-5.1072e-006	0	
-3.95692e-006	-5.22433e-006	0	
-3.93154e-006	-5.33973e-006	0	
-3.90283e-006	-5.45362e-006	0	
-3.87073e-006	-5.56563e-006	0	
-3.83594e-006	-5.67606e-006	0	
-3.79821e-006	-5.78485e-006	0	
-3.75744e-006	-5.89147e-006	0	
-3.71424e-006	-5.996e-006	0	
-3.66864e-006	-6.09865e-006	0	
-3.62021e-006	-6.19928e-006	0	
-3.56932e-006	-6.29786e-006	0	
-3.51635e-006	-6.39452e-006	0	
-3.46103e-006	-6.4887e-006	0	
-3.40333e-006	-6.58005e-006	0	
-3.34358e-006	-6.6694e-006	0	
-3.28185e-006	-6.75681e-006	0	
-3.2181e-006	-6.84163e-006	0	
-3.15228e-006	-6.9237e-006	0	
-3.08419e-006	-7.00278e-006	0	
-3.01382e-006	-7.07932e-006	0	
-2.94158e-006	-7.15326e-006	0	
-2.86748e-006	-7.224e-006	0	
-2.79049e-006	-7.29188e-006	0	
-2.71054e-006	-7.35665e-006	0	
-2.62838e-006	-7.41846e-006	0	
-2.54358e-006	-7.47766e-006	0	
-2.45548e-006	-7.53335e-006	0	
-2.3646e-006	-7.58624e-006	0	
-2.27091e-006	-7.63635e-006	0	
-2.17317e-006	-7.68221e-006	0	
-2.07192e-006	-7.72522e-006	0	
-1.96735e-006	-7.76561e-006	0	
-1.85814e-006	-7.80259e-006	0	
-1.74475e-006	-7.83655e-006	0	
-1.62738e-006	-7.86743e-006	0	
-1.50497e-006	-7.8955e-006	0	
-1.37784e-006	-7.92077e-006	0	
-1.24654e-006	-7.94295e-006	0	
-1.11e-006	-7.96283e-006	0	
-9.67981e-007	-7.98044e-006	0	
-8.20824e-007	-7.99511e-006	0	
-6.68427e-007	-8.00716e-006	0	
-5.10591e-007	-8.01754e-006	0	
-3.47545e-007	-8.02639e-006	0	
-1.78879e-007	-8.03299e-006	0	
-4.73388e-009	-8.03775e-006	0	
1.74378e-007	-8.04132e-006	0	
3.58445e-007	-8.04384e-006	0	
5.47281e-007	-8.04524e-006	0	
7.40636e-007	-8.04564e-006	0	
9.37814e-007	-8.04562e-006	0	
1.13829e-006	-8.04531e-006	0	
1.34215e-006	-8.04422e-006	0	
1.54857e-006	-8.0432e-006	0	
1.75634e-006	-8.04253e-006	0	
1.96516e-006	-8.04187e-006	0	
2.17446e-006	-8.04153e-006	0	
2.38258e-006	-8.04163e-006	0	
2.5884e-006	-8.04202e-006	0	
-1.64569e-018	-3.06228e-018	0	
-2.61264e-007	-1.37931e-007	0	
-5.2843e-007	-2.8077e-007	0	
-7.95439e-007	-4.2957e-007	0	
-1.05552e-006	-5.8273e-007	0	
-1.30326e-006	-7.37518e-007	0	
-1.53511e-006	-8.91195e-007	0	
-1.74946e-006	-1.04138e-006	0	
-1.94662e-006	-1.18633e-006	0	
-2.1282e-006	-1.32543e-006	0	
-2.29559e-006	-1.45914e-006	0	
-2.44936e-006	-1.58792e-006	0	
-2.59049e-006	-1.71175e-006	0	
-2.72119e-006	-1.83028e-006	0	
-2.846e-006	-1.94303e-006	0	
-2.96751e-006	-2.05329e-006	0	
-3.07582e-006	-2.16087e-006	0	
-3.17197e-006	-2.26134e-006	0	
-3.25636e-006	-2.36262e-006	0	
-3.32137e-006	-2.46903e-006	0	
-3.40353e-006	-2.55764e-006	0	
-3.39791e-006	-2.56756e-006	0	
-3.44556e-006	-2.62139e-006	0	
-3.45929e-006	-2.65326e-006	0	
-3.60255e-006	-2.82031e-006	0	
-3.68182e-006	-2.98781e-006	0	
-3.70897e-006	-3.13375e-006	0	
-3.76002e-006	-3.28029e-006	0	
-3.80004e-006	-3.42197e-006	0	
-3.83614e-006	-3.56385e-006	0	
-3.86815e-006	-3.70362e-006	0	
-3.89618e-006	-3.8428e-006	0	
-3.91975e-006	-3.98067e-006	0	
-3.93854e-006	-4.11674e-006	0	
-3.95369e-006	-4.25072e-006	0	
-3.96437e-006	-4.3833e-006	0	
-3.96988e-006	-4.51424e-006	0	
-3.97087e-006	-4.64318e-006	0	
-3.96719e-006	-4.7707e-006	0	
-3.95815e-006	-4.89637e-006	0	
-3.9448e-006	-5.02044e-006	0	
-3.92721e-006	-5.14362e-006	0	
-3.90525e-006	-5.26503e-006	0	
-3.88048e-006	-5.38449e-006	0	
-3.85263e-006	-5.50253e-006	0	
-3.82111e-006	-5.61865e-006	0	
-3.78712e-006	-5.73293e-006	0	
-3.75047e-006	-5.84529e-006	0	
-3.71054e-006	-5.95528e-006	0	
-3.66834e-006	-6.06309e-006	0	
-3.62361e-006	-6.1693e-006	0	
-3.57591e-006	-6.27357e-006	0	
-3.52586e-006	-6.37528e-006	0	
-3.47376e-006	-6.47494e-006	0	
-3.41955e-006	-6.57258e-006	0	
-3.36296e-006	-6.66754e-006	0	
-3.30417e-006	-6.76014e-006	0	
-3.24319e-006	-6.85066e-006	0	
-3.18036e-006	-6.93866e-006	0	
-3.11564e-006	-7.02395e-006	0	
-3.04888e-006	-7.10619e-006	0	
-2.97977e-006	-7.1857e-006	0	
-2.90869e-006	-7.26249e-006	0	
-2.83581e-006	-7.33664e-006	0	
-2.76009e-006	-7.40839e-006	0	
-2.68138e-006	-7.47651e-006	0	
-2.60078e-006	-7.54149e-006	0	
-2.5174e-006	-7.60393e-006	0	
-2.43034e-006	-7.66277e-006	0	
-2.34072e-006	-7.7189e-006	0	
-2.24874e-006	-7.77225e-006	0	
-2.15267e-006	-7.82183e-006	0	
-2.05261e-006	-7.86865e-006	0	
-1.94905e-006	-7.9124e-006	0	
-1.84144e-006	-7.95283e-006	0	
-1.72964e-006	-7.99056e-006	0	
-1.61359e-006	-8.02496e-006	0	
-1.49282e-006	-8.05633e-006	0	
-1.36737e-006	-8.085e-006	0	
-1.23718e-006	-8.11065e-006	0	
-1.10157e-006	-8.13358e-006	0	
-9.60986e-007	-8.15432e-006	0	
-8.15349e-007	-8.17246e-006	0	
-6.63736e-007	-8.18793e-006	0	
-5.06821e-007	-8.20152e-006	0	
-3.44897e-007	-8.21266e-006	0	
-1.77095e-007	-8.22177e-006	0	
-3.6533e-009	-8.22939e-006	0	
1.7451e-007	-8.23509e-006	0	
3.57834e-007	-8.23937e-006	0	
5.46273e-007	-8.24283e-006	0	
7.39145e-007	-8.24492e-006	0	
9.35956e-007	-8.24617e-006	0	
1.13654e-006	-8.24662e-006	0	
1.34058e-006	-8.24642e-006	0	
1.54728e-006	-8.24638e-006	0	
1.75584e-006	-8.24637e-006	0	
1.96532e-006	-8.24626e-006	0	
2.17516e-006	-8.24646e-006	0	
2.38429e-006	-8.24652e-006	0	
2.59135e-006	-8.24732e-006	0	
-1.63515e-018	-3.02464e-018	0	
-2.56082e-007	-1.36392e-007	0	
-5.13451e-007	-2.77269e-007	0	
-7.69455e-007	-4.23435e-007	0	
-1.01988e-006	-5.73935e-007	0	
-1.26055e-006	-7.26815e-007	0	
-1.48828e-006	-8.79851e-007	0	
-1.70127e-006	-1.03101e-006	0	
-1.89909e-006	-1.17874e-006	0	
-2.08228e-006	-1.3222e-006	0	
-2.25164e-006	-1.46113e-006	0	
-2.408e-006	-1.59543e-006	0	
-2.55253e-006	-1.72488e-006	0	
-2.68711e-006	-1.8493e-006	0	
-2.81408e-006	-1.96916e-006	0	
-2.93398e-006	-2.08606e-006	0	
-3.04399e-006	-2.20052e-006	0	
-3.1432e-006	-2.31146e-006	0	
-3.23117e-006	-2.41889e-006	0	
-3.31061e-006	-2.52131e-006	0	
-3.38533e-006	-2.62799e-006	0	
-3.43864e-006	-2.74249e-006	0	
-3.51787e-006	-2.84282e-006	0	
-3.4971e-006	-2.85255e-006	0	
-3.54103e-006	-2.91243e-006	0	
-3.63536e-006	-3.02727e-006	0	
-3.60355e-006	-3.05384e-006	0	
-3.70402e-006	-3.24768e-006	0	
-3.73351e-006	-3.40181e-006	0	
-3.77614e-006	-3.5496e-006	0	
-3.80617e-006	-3.69316e-006	0	
-3.83445e-006	-3.83675e-006	0	
-3.85906e-006	-3.9786e-006	0	
-3.87897e-006	-4.11971e-006	0	
-3.89521e-006	-4.25925e-006	0	
-3.9068e-006	-4.39731e-006	0	
-3.91332e-006	-4.53298e-006	0	
-3.91571e-006	-4.66645e-006	0	
-3.91296e-006	-4.79818e-006	0	
-3.90424e-006	-4.92821e-006	0	
-3.89091e-006	-5.05696e-006	0	
-3.87346e-006	-5.18417e-006	0	
-3.85195e-006	-5.30942e-006	0	
-3.82766e-006	-5.43346e-006	0	