# vtk DataFile Version 4.1
vtk output
ASCII
DATASET UNSTRUCTURED_GRID

POINTS	30401	float
0	0	0	
0	1	0	
0	2	0	
0	3	0	
0	4	0	
0	5	0	
0	6	0	
0	7	0	
0	8	0	
0	9	0	
0	10	0	
0	11	0	
0	12	0	
0	13	0	
0	14	0	
0	15	0	
0	16	0	
0	17	0	
0	18	0	
0	19	0	
0	20	0	
0	21	0	
0	22	0	
0	23	0	
0	24	0	
0	25	0	
0	26	0	
0	27	0	
0	28	0	
0	29	0	
0	30	0	
0	31	0	
0	32	0	
0	33	0	
0	34	0	
0	35	0	
0	36	0	
0	37	0	
0	38	0	
0	39	0	
0	40	0	
0	41	0	
0	42	0	
0	43	0	
0	44	0	
0	45	0	
0	46	0	
0	47	0	
0	48	0	
0	49	0	
0	50	0	
0	51	0	
0	52	0	
0	53	0	
0	54	0	
0	55	0	
0	56	0	
0	57	0	
0	58	0	
0	59	0	
0	60	0	
0	61	0	
0	62	0	
0	63	0	
0	64	0	
0	65	0	
0	66	0	
0	67	0	
0	68	0	
0	69	0	
0	70	0	
0	71	0	
0	72	0	
0	73	0	
0	74	0	
0	75	0	
0	76	0	
0	77	0	
0	78	0	
0	79	0	
0	80	0	
0	81	0	
0	82	0	
0	83	0	
0	84	0	
0	85	0	
0	86	0	
0	87	0	
0	88	0	
0	89	0	
0	90	0	
0	91	0	
0	92	0	
0	93	0	
0	94	0	
0	95	0	
0	96	0	
0	97	0	
0	98	0	
0	99	0	
0	100	0	
1	0	0	
1	1	0	
1	2	0	
1	3	0	
1	4	0	
1	5	0	
1	6	0	
1	7	0	
1	8	0	
1	9	0	
1	10	0	
1	11	0	
1	12	0	
1	13	0	
1	14	0	
1	15	0	
1	16	0	
1	17	0	
1	18	0	
1	19	0	
1	20	0	
1	21	0	
1	22	0	
1	23	0	
1	24	0	
1	25	0	
1	26	0	
1	27	0	
1	28	0	
1	29	0	
1	30	0	
1	31	0	
1	32	0	
1	33	0	
1	34	0	
1	35	0	
1	36	0	
1	37	0	
1	38	0	
1	39	0	
1	40	0	
1	41	0	
1	42	0	
1	43	0	
1	44	0	
1	45	0	
1	46	0	
1	47	0	
1	48	0	
1	49	0	
1	50	0	
1	51	0	
1	52	0	
1	53	0	
1	54	0	
1	55	0	
1	56	0	
1	57	0	
1	58	0	
1	59	0	
1	60	0	
1	61	0	
1	62	0	
1	63	0	
1	64	0	
1	65	0	
1	66	0	
1	67	0	
1	68	0	
1	69	0	
1	70	0	
1	71	0	
1	72	0	
1	73	0	
1	74	0	
1	75	0	
1	76	0	
1	77	0	
1	78	0	
1	79	0	
1	80	0	
1	81	0	
1	82	0	
1	83	0	
1	84	0	
1	85	0	
1	86	0	
1	87	0	
1	88	0	
1	89	0	
1	90	0	
1	91	0	
1	92	0	
1	93	0	
1	94	0	
1	95	0	
1	96	0	
1	97	0	
1	98	0	
1	99	0	
1	100	0	
2	0	0	
2	1	0	
2	2	0	
2	3	0	
2	4	0	
2	5	0	
2	6	0	
2	7	0	
2	8	0	
2	9	0	
2	10	0	
2	11	0	
2	12	0	
2	13	0	
2	14	0	
2	15	0	
2	16	0	
2	17	0	
2	18	0	
2	19	0	
2	20	0	
2	21	0	
2	22	0	
2	23	0	
2	24	0	
2	25	0	
2	26	0	
2	27	0	
2	28	0	
2	29	0	
2	30	0	
2	31	0	
2	32	0	
2	33	0	
2	34	0	
2	35	0	
2	36	0	
2	37	0	
2	38	0	
2	39	0	
2	40	0	
2	41	0	
2	42	0	
2	43	0	
2	44	0	
2	45	0	
2	46	0	
2	47	0	
2	48	0	
2	49	0	
2	50	0	
2	51	0	
2	52	0	
2	53	0	
2	54	0	
2	55	0	
2	56	0	
2	57	0	
2	58	0	
2	59	0	
2	60	0	
2	61	0	
2	62	0	
2	63	0	
2	64	0	
2	65	0	
2	66	0	
2	67	0	
2	68	0	
2	69	0	
2	70	0	
2	71	0	
2	72	0	
2	73	0	
2	74	0	
2	75	0	
2	76	0	
2	77	0	
2	78	0	
2	79	0	
2	80	0	
2	81	0	
2	82	0	
2	83	0	
2	84	0	
2	85	0	
2	86	0	
2	87	0	
2	88	0	
2	89	0	
2	90	0	
2	91	0	
2	92	0	
2	93	0	
2	94	0	
2	95	0	
2	96	0	
2	97	0	
2	98	0	
2	99	0	
2	100	0	
3	0	0	
3	1	0	
3	2	0	
3	3	0	
3	4	0	
3	5	0	
3	6	0	
3	7	0	
3	8	0	
3	9	0	
3	10	0	
3	11	0	
3	12	0	
3	13	0	
3	14	0	
3	15	0	
3	16	0	
3	17	0	
3	18	0	
3	19	0	
3	20	0	
3	21	0	
3	22	0	
3	23	0	
3	24	0	
3	25	0	
3	26	0	
3	27	0	
3	28	0	
3	29	0	
3	30	0	
3	31	0	
3	32	0	
3	33	0	
3	34	0	
3	35	0	
3	36	0	
3	37	0	
3	38	0	
3	39	0	
3	40	0	
3	41	0	
3	42	0	
3	43	0	
3	44	0	
3	45	0	
3	46	0	
3	47	0	
3	48	0	
3	49	0	
3	50	0	
3	51	0	
3	52	0	
3	53	0	
3	54	0	
3	55	0	
3	56	0	
3	57	0	
3	58	0	
3	59	0	
3	60	0	
3	61	0	
3	62	0	
3	63	0	
3	64	0	
3	65	0	
3	66	0	
3	67	0	
3	68	0	
3	69	0	
3	70	0	
3	71	0	
3	72	0	
3	73	0	
3	74	0	
3	75	0	
3	76	0	
3	77	0	
3	78	0	
3	79	0	
3	80	0	
3	81	0	
3	82	0	
3	83	0	
3	84	0	
3	85	0	
3	86	0	
3	87	0	
3	88	0	
3	89	0	
3	90	0	
3	91	0	
3	92	0	
3	93	0	
3	94	0	
3	95	0	
3	96	0	
3	97	0	
3	98	0	
3	99	0	
3	100	0	
4	0	0	
4	1	0	
4	2	0	
4	3	0	
4	4	0	
4	5	0	
4	6	0	
4	7	0	
4	8	0	
4	9	0	
4	10	0	
4	11	0	
4	12	0	
4	13	0	
4	14	0	
4	15	0	
4	16	0	
4	17	0	
4	18	0	
4	19	0	
4	20	0	
4	21	0	
4	22	0	
4	23	0	
4	24	0	
4	25	0	
4	26	0	
4	27	0	
4	28	0	
4	29	0	
4	30	0	
4	31	0	
4	32	0	
4	33	0	
4	34	0	
4	35	0	
4	36	0	
4	37	0	
4	38	0	
4	39	0	
4	40	0	
4	41	0	
4	42	0	
4	43	0	
4	44	0	
4	45	0	
4	46	0	
4	47	0	
4	48	0	
4	49	0	
4	50	0	
4	51	0	
4	52	0	
4	53	0	
4	54	0	
4	55	0	
4	56	0	
4	57	0	
4	58	0	
4	59	0	
4	60	0	
4	61	0	
4	62	0	
4	63	0	
4	64	0	
4	65	0	
4	66	0	
4	67	0	
4	68	0	
4	69	0	
4	70	0	
4	71	0	
4	72	0	
4	73	0	
4	74	0	
4	75	0	
4	76	0	
4	77	0	
4	78	0	
4	79	0	
4	80	0	
4	81	0	
4	82	0	
4	83	0	
4	84	0	
4	85	0	
4	86	0	
4	87	0	
4	88	0	
4	89	0	
4	90	0	
4	91	0	
4	92	0	
4	93	0	
4	94	0	
4	95	0	
4	96	0	
4	97	0	
4	98	0	
4	99	0	
4	100	0	
5	0	0	
5	1	0	
5	2	0	
5	3	0	
5	4	0	
5	5	0	
5	6	0	
5	7	0	
5	8	0	
5	9	0	
5	10	0	
5	11	0	
5	12	0	
5	13	0	
5	14	0	
5	15	0	
5	16	0	
5	17	0	
5	18	0	
5	19	0	
5	20	0	
5	21	0	
5	22	0	
5	23	0	
5	24	0	
5	25	0	
5	26	0	
5	27	0	
5	28	0	
5	29	0	
5	30	0	
5	31	0	
5	32	0	
5	33	0	
5	34	0	
5	35	0	
5	36	0	
5	37	0	
5	38	0	
5	39	0	
5	40	0	
5	41	0	
5	42	0	
5	43	0	
5	44	0	
5	45	0	
5	46	0	
5	47	0	
5	48	0	
5	49	0	
5	50	0	
5	51	0	
5	52	0	
5	53	0	
5	54	0	
5	55	0	
5	56	0	
5	57	0	
5	58	0	
5	59	0	
5	60	0	
5	61	0	
5	62	0	
5	63	0	
5	64	0	
5	65	0	
5	66	0	
5	67	0	
5	68	0	
5	69	0	
5	70	0	
5	71	0	
5	72	0	
5	73	0	
5	74	0	
5	75	0	
5	76	0	
5	77	0	
5	78	0	
5	79	0	
5	80	0	
5	81	0	
5	82	0	
5	83	0	
5	84	0	
5	85	0	
5	86	0	
5	87	0	
5	88	0	
5	89	0	
5	90	0	
5	91	0	
5	92	0	
5	93	0	
5	94	0	
5	95	0	
5	96	0	
5	97	0	
5	98	0	
5	99	0	
5	100	0	
6	0	0	
6	1	0	
6	2	0	
6	3	0	
6	4	0	
6	5	0	
6	6	0	
6	7	0	
6	8	0	
6	9	0	
6	10	0	
6	11	0	
6	12	0	
6	13	0	
6	14	0	
6	15	0	
6	16	0	
6	17	0	
6	18	0	
6	19	0	
6	20	0	
6	21	0	
6	22	0	
6	23	0	
6	24	0	
6	25	0	
6	26	0	
6	27	0	
6	28	0	
6	29	0	
6	30	0	
6	31	0	
6	32	0	
6	33	0	
6	34	0	
6	35	0	
6	36	0	
6	37	0	
6	38	0	
6	39	0	
6	40	0	
6	41	0	
6	42	0	
6	43	0	
6	44	0	
6	45	0	
6	46	0	
6	47	0	
6	48	0	
6	49	0	
6	50	0	
6	51	0	
6	52	0	
6	53	0	
6	54	0	
6	55	0	
6	56	0	
6	57	0	
6	58	0	
6	59	0	
6	60	0	
6	61	0	
6	62	0	
6	63	0	
6	64	0	
6	65	0	
6	66	0	
6	67	0	
6	68	0	
6	69	0	
6	70	0	
6	71	0	
6	72	0	
6	73	0	
6	74	0	
6	75	0	
6	76	0	
6	77	0	
6	78	0	
6	79	0	
6	80	0	
6	81	0	
6	82	0	
6	83	0	
6	84	0	
6	85	0	
6	86	0	
6	87	0	
6	88	0	
6	89	0	
6	90	0	
6	91	0	
6	92	0	
6	93	0	
6	94	0	
6	95	0	
6	96	0	
6	97	0	
6	98	0	
6	99	0	
6	100	0	
7	0	0	
7	1	0	
7	2	0	
7	3	0	
7	4	0	
7	5	0	
7	6	0	
7	7	0	
7	8	0	
7	9	0	
7	10	0	
7	11	0	
7	12	0	
7	13	0	
7	14	0	
7	15	0	
7	16	0	
7	17	0	
7	18	0	
7	19	0	
7	20	0	
7	21	0	
7	22	0	
7	23	0	
7	24	0	
7	25	0	
7	26	0	
7	27	0	
7	28	0	
7	29	0	
7	30	0	
7	31	0	
7	32	0	
7	33	0	
7	34	0	
7	35	0	
7	36	0	
7	37	0	
7	38	0	
7	39	0	
7	40	0	
7	41	0	
7	42	0	
7	43	0	
7	44	0	
7	45	0	
7	46	0	
7	47	0	
7	48	0	
7	49	0	
7	50	0	
7	51	0	
7	52	0	
7	53	0	
7	54	0	
7	55	0	
7	56	0	
7	57	0	
7	58	0	
7	59	0	
7	60	0	
7	61	0	
7	62	0	
7	63	0	
7	64	0	
7	65	0	
7	66	0	
7	67	0	
7	68	0	
7	69	0	
7	70	0	
7	71	0	
7	72	0	
7	73	0	
7	74	0	
7	75	0	
7	76	0	
7	77	0	
7	78	0	
7	79	0	
7	80	0	
7	81	0	
7	82	0	
7	83	0	
7	84	0	
7	85	0	
7	86	0	
7	87	0	
7	88	0	
7	89	0	
7	90	0	
7	91	0	
7	92	0	
7	93	0	
7	94	0	
7	95	0	
7	96	0	
7	97	0	
7	98	0	
7	99	0	
7	100	0	
8	0	0	
8	1	0	
8	2	0	
8	3	0	
8	4	0	
8	5	0	
8	6	0	
8	7	0	
8	8	0	
8	9	0	
8	10	0	
8	11	0	
8	12	0	
8	13	0	
8	14	0	
8	15	0	
8	16	0	
8	17	0	
8	18	0	
8	19	0	
8	20	0	
8	21	0	
8	22	0	
8	23	0	
8	24	0	
8	25	0	
8	26	0	
8	27	0	
8	28	0	
8	29	0	
8	30	0	
8	31	0	
8	32	0	
8	33	0	
8	34	0	
8	35	0	
8	36	0	
8	37	0	
8	38	0	
8	39	0	
8	40	0	
8	41	0	
8	42	0	
8	43	0	
8	44	0	
8	45	0	
8	46	0	
8	47	0	
8	48	0	
8	49	0	
8	50	0	
8	51	0	
8	52	0	
8	53	0	
8	54	0	
8	55	0	
8	56	0	
8	57	0	
8	58	0	
8	59	0	
8	60	0	
8	61	0	
8	62	0	
8	63	0	
8	64	0	
8	65	0	
8	66	0	
8	67	0	
8	68	0	
8	69	0	
8	70	0	
8	71	0	
8	72	0	
8	73	0	
8	74	0	
8	75	0	
8	76	0	
8	77	0	
8	78	0	
8	79	0	
8	80	0	
8	81	0	
8	82	0	
8	83	0	
8	84	0	
8	85	0	
8	86	0	
8	87	0	
8	88	0	
8	89	0	
8	90	0	
8	91	0	
8	92	0	
8	93	0	
8	94	0	
8	95	0	
8	96	0	
8	97	0	
8	98	0	
8	99	0	
8	100	0	
9	0	0	
9	1	0	
9	2	0	
9	3	0	
9	4	0	
9	5	0	
9	6	0	
9	7	0	
9	8	0	
9	9	0	
9	10	0	
9	11	0	
9	12	0	
9	13	0	
9	14	0	
9	15	0	
9	16	0	
9	17	0	
9	18	0	
9	19	0	
9	20	0	
9	21	0	
9	22	0	
9	23	0	
9	24	0	
9	25	0	
9	26	0	
9	27	0	
9	28	0	
9	29	0	
9	30	0	
9	31	0	
9	32	0	
9	33	0	
9	34	0	
9	35	0	
9	36	0	
9	37	0	
9	38	0	
9	39	0	
9	40	0	
9	41	0	
9	42	0	
9	43	0	
9	44	0	
9	45	0	
9	46	0	
9	47	0	
9	48	0	
9	49	0	
9	50	0	
9	51	0	
9	52	0	
9	53	0	
9	54	0	
9	55	0	
9	56	0	
9	57	0	
9	58	0	
9	59	0	
9	60	0	
9	61	0	
9	62	0	
9	63	0	
9	64	0	
9	65	0	
9	66	0	
9	67	0	
9	68	0	
9	69	0	
9	70	0	
9	71	0	
9	72	0	
9	73	0	
9	74	0	
9	75	0	
9	76	0	
9	77	0	
9	78	0	
9	79	0	
9	80	0	
9	81	0	
9	82	0	
9	83	0	
9	84	0	
9	85	0	
9	86	0	
9	87	0	
9	88	0	
9	89	0	
9	90	0	
9	91	0	
9	92	0	
9	93	0	
9	94	0	
9	95	0	
9	96	0	
9	97	0	
9	98	0	
9	99	0	
9	100	0	
10	0	0	
10	1	0	
10	2	0	
10	3	0	
10	4	0	
10	5	0	
10	6	0	
10	7	0	
10	8	0	
10	9	0	
10	10	0	
10	11	0	
10	12	0	
10	13	0	
10	14	0	
10	15	0	
10	16	0	
10	17	0	
10	18	0	
10	19	0	
10	20	0	
10	21	0	
10	22	0	
10	23	0	
10	24	0	
10	25	0	
10	26	0	
10	27	0	
10	28	0	
10	29	0	
10	30	0	
10	31	0	
10	32	0	
10	33	0	
10	34	0	
10	35	0	
10	36	0	
10	37	0	
10	38	0	
10	39	0	
10	40	0	
10	41	0	
10	42	0	
10	43	0	
10	44	0	
10	45	0	
10	46	0	
10	47	0	
10	48	0	
10	49	0	
10	50	0	
10	51	0	
10	52	0	
10	53	0	
10	54	0	
10	55	0	
10	56	0	
10	57	0	
10	58	0	
10	59	0	
10	60	0	
10	61	0	
10	62	0	
10	63	0	
10	64	0	
10	65	0	
10	66	0	
10	67	0	
10	68	0	
10	69	0	
10	70	0	
10	71	0	
10	72	0	
10	73	0	
10	74	0	
10	75	0	
10	76	0	
10	77	0	
10	78	0	
10	79	0	
10	80	0	
10	81	0	
10	82	0	
10	83	0	
10	84	0	
10	85	0	
10	86	0	
10	87	0	
10	88	0	
10	89	0	
10	90	0	
10	91	0	
10	92	0	
10	93	0	
10	94	0	
10	95	0	
10	96	0	
10	97	0	
10	98	0	
10	99	0	
10	100	0	
11	0	0	
11	1	0	
11	2	0	
11	3	0	
11	4	0	
11	5	0	
11	6	0	
11	7	0	
11	8	0	
11	9	0	
11	10	0	
11	11	0	
11	12	0	
11	13	0	
11	14	0	
11	15	0	
11	16	0	
11	17	0	
11	18	0	
11	19	0	
11	20	0	
11	21	0	
11	22	0	
11	23	0	
11	24	0	
11	25	0	
11	26	0	
11	27	0	
11	28	0	
11	29	0	
11	30	0	
11	31	0	
11	32	0	
11	33	0	
11	34	0	
11	35	0	
11	36	0	
11	37	0	
11	38	0	
11	39	0	
11	40	0	
11	41	0	
11	42	0	
11	43	0	
11	44	0	
11	45	0	
11	46	0	
11	47	0	
11	48	0	
11	49	0	
11	50	0	
11	51	0	
11	52	0	
11	53	0	
11	54	0	
11	55	0	
11	56	0	
11	57	0	
11	58	0	
11	59	0	
11	60	0	
11	61	0	
11	62	0	
11	63	0	
11	64	0	
11	65	0	
11	66	0	
11	67	0	
11	68	0	
11	69	0	
11	70	0	
11	71	0	
11	72	0	
11	73	0	
11	74	0	
11	75	0	
11	76	0	
11	77	0	
11	78	0	
11	79	0	
11	80	0	
11	81	0	
11	82	0	
11	83	0	
11	84	0	
11	85	0	
11	86	0	
11	87	0	
11	88	0	
11	89	0	
11	90	0	
11	91	0	
11	92	0	
11	93	0	
11	94	0	
11	95	0	
11	96	0	
11	97	0	
11	98	0	
11	99	0	
11	100	0	
12	0	0	
12	1	0	
12	2	0	
12	3	0	
12	4	0	
12	5	0	
12	6	0	
12	7	0	
12	8	0	
12	9	0	
12	10	0	
12	11	0	
12	12	0	
12	13	0	
[...]
POINT_DATA	30401
VECTORS d float
-8.75571e-018	-1.58132e-017	0	
-4.71664e-007	-4.83584e-007	0	
-8.19523e-007	-7.66552e-007	0	
-1.12906e-006	-9.84534e-007	0	
-1.40974e-006	-1.16114e-006	0	
-1.66837e-006	-1.30217e-006	0	
-1.90379e-006	-1.41062e-006	0	
-2.11071e-006	-1.48246e-006	0	
-2.27639e-006	-1.51738e-006	0	
-2.39443e-006	-1.52869e-006	0	
-2.54202e-006	-1.57061e-006	0	
-2.68111e-006	-1.61482e-006	0	
-2.79186e-006	-1.65137e-006	0	
-3.01228e-006	-1.84097e-006	0	
-3.14187e-006	-1.99213e-006	0	
-3.31366e-006	-2.13175e-006	0	
-3.4405e-006	-2.23673e-006	0	
-3.54583e-006	-2.36439e-006	0	
-3.65471e-006	-2.49315e-006	0	
-3.76161e-006	-2.61605e-006	0	
-3.86193e-006	-2.74206e-006	0	
-3.95642e-006	-2.86332e-006	0	
-4.04805e-006	-2.98417e-006	0	
-4.13376e-006	-3.10364e-006	0	
-4.21449e-006	-3.21631e-006	0	
-4.2879e-006	-3.32869e-006	0	
-4.35106e-006	-3.43745e-006	0	
-4.40716e-006	-3.54427e-006	0	
-4.45522e-006	-3.65236e-006	0	
-4.49544e-006	-3.75814e-006	0	
-4.531e-006	-3.86377e-006	0	
-4.56092e-006	-3.96876e-006	0	
-4.58478e-006	-4.07125e-006	0	
-4.60486e-006	-4.17187e-006	0	
-4.6189e-006	-4.27228e-006	0	
-4.62675e-006	-4.36925e-006	0	
-4.63121e-006	-4.46519e-006	0	
-4.62845e-006	-4.56022e-006	0	
-4.62072e-006	-4.65125e-006	0	
-4.60929e-006	-4.74389e-006	0	
-4.59071e-006	-4.83336e-006	0	
-4.56865e-006	-4.92119e-006	0	
-4.54207e-006	-5.01052e-006	0	
-4.51032e-006	-5.09479e-006	0	
-4.47612e-006	-5.18005e-006	0	
-4.43611e-006	-5.2639e-006	0	
-4.39312e-006	-5.34335e-006	0	
-4.34716e-006	-5.4249e-006	0	
-4.29651e-006	-5.50268e-006	0	
-4.24335e-006	-5.57819e-006	0	
-4.18646e-006	-5.65476e-006	0	
-4.12621e-006	-5.72612e-006	0	
-4.06344e-006	-5.7966e-006	0	
-3.997e-006	-5.86645e-006	0	
-3.92832e-006	-5.93182e-006	0	
-3.85665e-006	-5.9969e-006	0	
-3.78165e-006	-6.0592e-006	0	
-3.70456e-006	-6.11774e-006	0	
-3.62377e-006	-6.17534e-006	0	
-3.54033e-006	-6.22951e-006	0	
-3.45483e-006	-6.28059e-006	0	
-3.36485e-006	-6.32955e-006	0	
-3.27261e-006	-6.37512e-006	0	
-3.17847e-006	-6.41811e-006	0	
-3.07994e-006	-6.45852e-006	0	
-2.97896e-006	-6.4957e-006	0	
-2.87517e-006	-6.53014e-006	0	
-2.76735e-006	-6.56096e-006	0	
-2.6565e-006	-6.58808e-006	0	
-2.5422e-006	-6.6126e-006	0	
-2.42351e-006	-6.63396e-006	0	
-2.30133e-006	-6.65223e-006	0	
-2.17578e-006	-6.66775e-006	0	
-2.04604e-006	-6.68017e-006	0	
-1.91223e-006	-6.68924e-006	0	
-1.77356e-006	-6.69496e-006	0	
-1.63058e-006	-6.69793e-006	0	
-1.48416e-006	-6.69859e-006	0	
-1.33225e-006	-6.69654e-006	0	
-1.17467e-006	-6.69183e-006	0	
-1.01317e-006	-6.68525e-006	0	
-8.46944e-007	-6.67589e-006	0	
-6.75054e-007	-6.66432e-006	0	
-4.98473e-007	-6.6522e-006	0	
-3.16724e-007	-6.63803e-006	0	
-1.29522e-007	-6.62253e-006	0	
6.19942e-008	-6.60678e-006	0	
2.58739e-007	-6.59015e-006	0	
4.60457e-007	-6.57388e-006	0	
6.66239e-007	-6.55756e-006	0	
8.76213e-007	-6.54101e-006	0	
1.09077e-006	-6.52605e-006	0	
1.30771e-006	-6.51204e-006	0	
1.52783e-006	-6.49884e-006	0	
1.75179e-006	-6.48801e-006	0	
1.97649e-006	-6.47893e-006	0	
2.20231e-006	-6.47174e-006	0	
2.42971e-006	-6.46748e-006	0	
2.65624e-006	-6.46488e-006	0	
2.88247e-006	-6.46382e-006	0	
3.1082e-006	-6.46294e-006	0	
-2.63605e-018	-5.26919e-018	0	
-3.60194e-007	-2.64173e-007	0	
-7.167e-007	-5.17285e-007	0	
-1.04328e-006	-7.43739e-007	0	
-1.33899e-006	-9.32972e-007	0	
-1.61024e-006	-1.09272e-006	0	
-1.85752e-006	-1.22675e-006	0	
-2.07699e-006	-1.33844e-006	0	
-2.25574e-006	-1.43855e-006	0	
-2.42075e-006	-1.56292e-006	0	
-2.61258e-006	-1.68174e-006	0	
-2.75235e-006	-1.72813e-006	0	
-2.83154e-006	-1.73639e-006	0	
-2.94969e-006	-1.77909e-006	0	
-3.0419e-006	-1.80805e-006	0	
-3.25846e-006	-1.97656e-006	0	
-3.39448e-006	-2.12371e-006	0	
-3.4864e-006	-2.25393e-006	0	
-3.60189e-006	-2.38608e-006	0	
-3.70661e-006	-2.51573e-006	0	
-3.80767e-006	-2.64577e-006	0	
-3.9036e-006	-2.77257e-006	0	
-3.99549e-006	-2.89879e-006	0	
-4.08299e-006	-3.02286e-006	0	
-4.16497e-006	-3.14369e-006	0	
-4.23925e-006	-3.2626e-006	0	
-4.30358e-006	-3.37922e-006	0	
-4.35948e-006	-3.49413e-006	0	
-4.4079e-006	-3.60872e-006	0	
-4.44903e-006	-3.72148e-006	0	
-4.48484e-006	-3.83309e-006	0	
-4.51539e-006	-3.94347e-006	0	
-4.54019e-006	-4.05132e-006	0	
-4.5605e-006	-4.15808e-006	0	
-4.57513e-006	-4.26297e-006	0	
-4.58434e-006	-4.36551e-006	0	
-4.58899e-006	-4.46743e-006	0	
-4.58721e-006	-4.56675e-006	0	
-4.58018e-006	-4.66399e-006	0	
-4.56878e-006	-4.76099e-006	0	
-4.55133e-006	-4.85549e-006	0	
-4.52975e-006	-4.94852e-006	0	
-4.50406e-006	-5.04077e-006	0	
-4.47312e-006	-5.13065e-006	0	
-4.4388e-006	-5.21942e-006	0	
-4.40031e-006	-5.30674e-006	0	
-4.35779e-006	-5.39151e-006	0	
-4.31202e-006	-5.47503e-006	0	
-4.26272e-006	-5.55714e-006	0	
-4.20984e-006	-5.63702e-006	0	
-4.15394e-006	-5.71494e-006	0	
-4.09517e-006	-5.79078e-006	0	
-4.03273e-006	-5.86481e-006	0	
-3.96747e-006	-5.93663e-006	0	
-3.89989e-006	-6.00572e-006	0	
-3.8288e-006	-6.07319e-006	0	
-3.755e-006	-6.13813e-006	0	
-3.67894e-006	-6.19996e-006	0	
-3.59936e-006	-6.26001e-006	0	
-3.51703e-006	-6.31745e-006	0	
-3.43239e-006	-6.37196e-006	0	
-3.34422e-006	-6.42402e-006	0	
-3.25347e-006	-6.47274e-006	0	
-3.16005e-006	-6.51868e-006	0	
-3.06287e-006	-6.56235e-006	0	
-2.96319e-006	-6.60267e-006	0	
-2.86033e-006	-6.63989e-006	0	
-2.7538e-006	-6.67414e-006	0	
-2.64434e-006	-6.70519e-006	0	
-2.53135e-006	-6.73356e-006	0	
-2.41425e-006	-6.75882e-006	0	
-2.29365e-006	-6.78086e-006	0	
-2.1692e-006	-6.79998e-006	0	
-2.04042e-006	-6.816e-006	0	
-1.90803e-006	-6.82927e-006	0	
-1.77103e-006	-6.83982e-006	0	
-1.62916e-006	-6.84706e-006	0	
-1.48331e-006	-6.85171e-006	0	
-1.3324e-006	-6.85459e-006	0	
-1.17632e-006	-6.85475e-006	0	
-1.01588e-006	-6.85215e-006	0	
-8.50399e-007	-6.84773e-006	0	
-6.78968e-007	-6.8416e-006	0	
-5.02963e-007	-6.8338e-006	0	
-3.22178e-007	-6.82441e-006	0	
-1.35466e-007	-6.81383e-006	0	
5.60761e-008	-6.80247e-006	0	
2.5254e-007	-6.79046e-006	0	
4.54057e-007	-6.77798e-006	0	
6.59867e-007	-6.76541e-006	0	
8.70173e-007	-6.75316e-006	0	
1.08502e-006	-6.74124e-006	0	
1.30267e-006	-6.73013e-006	0	
1.52346e-006	-6.72037e-006	0	
1.74771e-006	-6.71179e-006	0	
1.97306e-006	-6.70428e-006	0	
2.20001e-006	-6.69821e-006	0	
2.42814e-006	-6.69371e-006	0	
2.65533e-006	-6.69083e-006	0	
2.88203e-006	-6.68909e-006	0	
3.10737e-006	-6.68833e-006	0	
-1.71692e-018	-4.02793e-018	0	
-3.05892e-007	-1.89687e-007	0	
-6.42825e-007	-3.94348e-007	0	
-9.6726e-007	-5.95458e-007	0	
-1.26843e-006	-7.80953e-007	0	
-1.54596e-006	-9.49174e-007	0	
-1.79862e-006	-1.10158e-006	0	
-2.02302e-006	-1.24154e-006	0	
-2.21632e-006	-1.36983e-006	0	
-2.39657e-006	-1.48654e-006	0	
-2.57961e-006	-1.59487e-006	0	
-2.73352e-006	-1.69582e-006	0	
-2.86548e-006	-1.79973e-006	0	
-3.00901e-006	-1.88391e-006	0	
-3.06542e-006	-1.89326e-006	0	
-3.18497e-006	-1.95257e-006	0	
-3.34372e-006	-2.05754e-006	0	
-3.38519e-006	-2.08549e-006	0	
-3.54964e-006	-2.27439e-006	0	
-3.64563e-006	-2.41789e-006	0	
-3.75338e-006	-2.55436e-006	0	
-3.84754e-006	-2.68693e-006	0	
-3.93968e-006	-2.8194e-006	0	
-4.02899e-006	-2.94886e-006	0	
-4.11278e-006	-3.07637e-006	0	
-4.18827e-006	-3.20162e-006	0	
-4.25317e-006	-3.32472e-006	0	
-4.30905e-006	-3.44706e-006	0	
-4.35762e-006	-3.56862e-006	0	
-4.39939e-006	-3.68792e-006	0	
-4.436e-006	-3.80586e-006	0	
-4.46719e-006	-3.92227e-006	0	
-4.49298e-006	-4.03593e-006	0	
-4.51409e-006	-4.14855e-006	0	
-4.5295e-006	-4.25864e-006	0	
-4.53968e-006	-4.36635e-006	0	
-4.54471e-006	-4.47323e-006	0	
-4.54369e-006	-4.5775e-006	0	
-4.53759e-006	-4.6802e-006	0	
-4.52657e-006	-4.7817e-006	0	
-4.50994e-006	-4.88103e-006	0	
-4.48925e-006	-4.97919e-006	0	
-4.46414e-006	-5.07548e-006	0	
-4.43376e-006	-5.16978e-006	0	
-4.39996e-006	-5.26273e-006	0	
-4.36251e-006	-5.35378e-006	0	
-4.32091e-006	-5.44295e-006	0	
-4.27579e-006	-5.53053e-006	0	
-4.22724e-006	-5.61634e-006	0	
-4.1754e-006	-5.69964e-006	0	
-4.12027e-006	-5.78097e-006	0	
-4.06212e-006	-5.8604e-006	0	
-4.00076e-006	-5.93759e-006	0	
-3.93672e-006	-6.01293e-006	0	
-3.87007e-006	-6.08569e-006	0	
-3.80002e-006	-6.15587e-006	0	
-3.72721e-006	-6.22399e-006	0	
-3.6521e-006	-6.28926e-006	0	
-3.57376e-006	-6.35215e-006	0	
-3.49233e-006	-6.41254e-006	0	
-3.4086e-006	-6.47024e-006	0	
-3.32209e-006	-6.52574e-006	0	
-3.23271e-006	-6.57792e-006	0	
-3.14014e-006	-6.62728e-006	0	
-3.0444e-006	-6.67417e-006	0	
-2.94613e-006	-6.71754e-006	0	
-2.84429e-006	-6.75822e-006	0	
-2.73876e-006	-6.79631e-006	0	
-2.63047e-006	-6.83084e-006	0	
-2.51879e-006	-6.86258e-006	0	
-2.40316e-006	-6.89157e-006	0	
-2.2842e-006	-6.91735e-006	0	
-2.16138e-006	-6.94025e-006	0	
-2.03356e-006	-6.96023e-006	0	
-1.9019e-006	-6.97754e-006	0	
-1.76647e-006	-6.99223e-006	0	
-1.62628e-006	-7.00386e-006	0	
-1.48102e-006	-7.01292e-006	0	
-1.33099e-006	-7.0198e-006	0	
-1.17655e-006	-7.024e-006	0	
-1.01695e-006	-7.02588e-006	0	
-8.51869e-007	-7.02605e-006	0	
-6.81433e-007	-7.02428e-006	0	
-5.06187e-007	-7.02062e-006	0	
-3.2586e-007	-7.01546e-006	0	
-1.39716e-007	-7.00892e-006	0	
5.15395e-008	-7.00153e-006	0	
2.474e-007	-6.99337e-006	0	
4.48573e-007	-6.98411e-006	0	
6.54769e-007	-6.97481e-006	0	
8.65161e-007	-6.96592e-006	0	
1.07972e-006	-6.95696e-006	0	
1.2982e-006	-6.94844e-006	0	
1.51978e-006	-6.94088e-006	0	
1.74395e-006	-6.93374e-006	0	
1.96993e-006	-6.92722e-006	0	
2.19757e-006	-6.92187e-006	0	
2.42597e-006	-6.91775e-006	0	
2.65374e-006	-6.91508e-006	0	
2.88095e-006	-6.91375e-006	0	
3.10696e-006	-6.91322e-006	0	
-1.69862e-018	-3.573e-018	0	
-2.87445e-007	-1.62299e-007	0	
-5.98364e-007	-3.34355e-007	0	
-9.08851e-007	-5.11679e-007	0	
-1.20566e-006	-6.86762e-007	0	
-1.48254e-006	-8.54745e-007	0	
-1.73637e-006	-1.01406e-006	0	
-1.96483e-006	-1.16413e-006	0	
-2.16943e-006	-1.30311e-006	0	
-2.35911e-006	-1.43037e-006	0	
-2.53896e-006	-1.55096e-006	0	
-2.70165e-006	-1.66649e-006	0	
-2.84893e-006	-1.77402e-006	0	
-2.98809e-006	-1.88482e-006	0	
-3.10487e-006	-2.00945e-006	0	
-3.27087e-006	-2.14628e-006	0	
-3.36773e-006	-2.19343e-006	0	
-3.4095e-006	-2.20481e-006	0	
-3.48854e-006	-2.24927e-006	0	
-3.54637e-006	-2.2827e-006	0	
-3.70274e-006	-2.46209e-006	0	
-3.78575e-006	-2.60486e-006	0	
-3.88277e-006	-2.74359e-006	0	
-3.97126e-006	-2.87868e-006	0	
-4.05824e-006	-3.01406e-006	0	
-4.13596e-006	-3.14438e-006	0	
-4.19983e-006	-3.27417e-006	0	
-4.25544e-006	-3.40437e-006	0	
-4.30396e-006	-3.53299e-006	0	
-4.34647e-006	-3.65916e-006	0	
-4.38421e-006	-3.78356e-006	0	
-4.41623e-006	-3.90562e-006	0	
-4.44295e-006	-4.02514e-006	0	
-4.46519e-006	-4.14302e-006	0	
-4.48179e-006	-4.25833e-006	0	
-4.49288e-006	-4.37156e-006	0	
-4.49851e-006	-4.48309e-006	0	
-4.49853e-006	-4.59237e-006	0	
-4.49309e-006	-4.70038e-006	0	
-4.48264e-006	-4.80619e-006	0	
-4.46699e-006	-4.91023e-006	0	
-4.4465e-006	-5.01342e-006	0	
-4.42191e-006	-5.1144e-006	0	
-4.39266e-006	-5.21342e-006	0	
-4.35949e-006	-5.31067e-006	0	
-4.32282e-006	-5.40563e-006	0	
-4.28222e-006	-5.49898e-006	0	
-4.23782e-006	-5.59069e-006	0	
-4.19018e-006	-5.68003e-006	0	
-4.13944e-006	-5.76701e-006	0	
-4.08512e-006	-5.85231e-006	0	
-4.02751e-006	-5.93538e-006	0	
-3.96729e-006	-6.01593e-006	0	
-3.9044e-006	-6.09486e-006	0	
-3.83839e-006	-6.17136e-006	0	
-3.76947e-006	-6.24508e-006	0	
-3.69792e-006	-6.31661e-006	0	
-3.62362e-006	-6.3854e-006	0	
-3.54646e-006	-6.45173e-006	0	
-3.4664e-006	-6.51543e-006	0	
-3.38369e-006	-6.57622e-006	0	
-3.29822e-006	-6.63467e-006	0	
-3.21005e-006	-6.69025e-006	0	
-3.11879e-006	-6.74308e-006	0	
-3.02438e-006	-6.79317e-006	0	
-2.9273e-006	-6.84018e-006	0	
-2.82676e-006	-6.88472e-006	0	
-2.72254e-006	-6.92643e-006	0	
-2.6155e-006	-6.96454e-006	0	
-2.50526e-006	-6.99954e-006	0	
-2.39072e-006	-7.03194e-006	0	
-2.27268e-006	-7.06174e-006	0	
-2.1516e-006	-7.08889e-006	0	
-2.02543e-006	-7.11301e-006	0	
-1.89445e-006	-7.134e-006	0	
-1.76018e-006	-7.1524e-006	0	
-1.62159e-006	-7.16824e-006	0	
-1.47742e-006	-7.18148e-006	0	
-1.32854e-006	-7.19202e-006	0	
-1.17518e-006	-7.20024e-006	0	
-1.01623e-006	-7.20652e-006	0	
-8.51948e-007	-7.21071e-006	0	
-6.82914e-007	-7.21247e-006	0	
-5.08516e-007	-7.21235e-006	0	
-3.284e-007	-7.21109e-006	0	
-1.42913e-007	-7.20828e-006	0	
4.76365e-008	-7.2041e-006	0	
2.43039e-007	-7.19912e-006	0	
4.43916e-007	-7.19335e-006	0	
6.50125e-007	-7.18695e-006	0	
8.60509e-007	-7.1804e-006	0	
1.07476e-006	-7.17369e-006	0	
1.29342e-006	-7.16692e-006	0	
1.51563e-006	-7.16044e-006	0	
1.74012e-006	-7.15439e-006	0	
1.96669e-006	-7.14889e-006	0	
2.19496e-006	-7.14444e-006	0	
2.42385e-006	-7.14111e-006	0	
2.6524e-006	-7.13898e-006	0	
2.88025e-006	-7.13814e-006	0	
3.1062e-006	-7.13802e-006	0	
-1.7029e-018	-3.28977e-018	0	
-2.77389e-007	-1.48754e-007	0	
-5.70181e-007	-3.04354e-007	0	
-8.6575e-007	-4.66582e-007	0	
-1.15311e-006	-6.31592e-007	0	
-1.4251e-006	-7.95399e-007	0	
-1.67762e-006	-9.55163e-007	0	
-1.90887e-006	-1.10865e-006	0	
-2.12003e-006	-1.25399e-006	0	
-2.31505e-006	-1.39096e-006	0	
-2.49631e-006	-1.52168e-006	0	
-2.66273e-006	-1.64747e-006	0	
-2.81542e-006	-1.76834e-006	0	
-2.956e-006	-1.8857e-006	0	
-3.08999e-006	-1.99803e-006	0	
-3.23729e-006	-2.11079e-006	0	
-3.35109e-006	-2.21443e-006	0	
-3.44994e-006	-2.3213e-006	0	
-3.54955e-006	-2.3975e-006	0	
-3.57083e-006	-2.40742e-006	0	
-3.64029e-006	-2.45792e-006	0	
-3.68292e-006	-2.49311e-006	0	
-3.82839e-006	-2.65725e-006	0	
-3.9075e-006	-2.8052e-006	0	
-4.00408e-006	-2.95447e-006	0	
-4.08344e-006	-3.09083e-006	0	
-4.14308e-006	-3.22985e-006	0	
-4.19793e-006	-3.36839e-006	0	
-4.24725e-006	-3.50324e-006	0	
-4.29081e-006	-3.6361e-006	0	
-4.32969e-006	-3.76644e-006	0	
-4.3628e-006	-3.89387e-006	0	
-4.39068e-006	-4.01914e-006	0	
-4.41369e-006	-4.14229e-006	0	
-4.43146e-006	-4.26285e-006	0	
-4.44394e-006	-4.38167e-006	0	
-4.45066e-006	-4.49819e-006	0	
-4.45157e-006	-4.61227e-006	0	
-4.44653e-006	-4.72519e-006	0	
-4.43652e-006	-4.83625e-006	0	
-4.42149e-006	-4.94527e-006	0	
-4.4015e-006	-5.05287e-006	0	
-4.37768e-006	-5.15856e-006	0	
-4.3498e-006	-5.26213e-006	0	
-4.31741e-006	-5.36372e-006	0	
-4.28113e-006	-5.46318e-006	0	
-4.24141e-006	-5.56075e-006	0	
-4.19794e-006	-5.65631e-006	0	
-4.15107e-006	-5.74942e-006	0	
-4.10109e-006	-5.84066e-006	0	
-4.04778e-006	-5.92993e-006	0	
-3.99147e-006	-6.01646e-006	0	
-3.9323e-006	-6.10094e-006	0	
-3.86996e-006	-6.18322e-006	0	
-3.80481e-006	-6.26293e-006	0	
-3.73731e-006	-6.3406e-006	0	
-3.66666e-006	-6.41539e-006	0	
-3.59316e-006	-6.48733e-006	0	
-3.51758e-006	-6.55743e-006	0	
-3.43903e-006	-6.62495e-006	0	
-3.35729e-006	-6.68938e-006	0	
-3.27296e-006	-6.75132e-006	0	
-3.18603e-006	-6.81047e-006	0	
-3.09599e-006	-6.86666e-006	0	
-3.00284e-006	-6.92001e-006	0	
-2.90692e-006	-6.97064e-006	0	
-2.80751e-006	-7.01854e-006	0	
-2.70462e-006	-7.06353e-006	0	
-2.5991e-006	-7.10582e-006	0	
-2.4904e-006	-7.14513e-006	0	
-2.37723e-006	-7.18127e-006	0	
-2.26013e-006	-7.21462e-006	0	
-2.13998e-006	-7.24541e-006	0	
-2.01541e-006	-7.27333e-006	0	
-1.88615e-006	-7.29812e-006	0	
-1.75304e-006	-7.32017e-006	0	
-1.61524e-006	-7.33983e-006	0	
-1.47226e-006	-7.35681e-006	0	
-1.32493e-006	-7.37117e-006	0	
-1.17251e-006	-7.38319e-006	0	
-1.01441e-006	-7.39297e-006	0	
-8.51386e-007	-7.40052e-006	0	
-6.8349e-007	-7.40577e-006	0	
-5.09754e-007	-7.40914e-006	0	
-3.30454e-007	-7.41131e-006	0	
-1.46045e-007	-7.41177e-006	0	
4.41801e-008	-7.41037e-006	0	
2.39572e-007	-7.40814e-006	0	
4.39859e-007	-7.40521e-006	0	
6.45312e-007	-7.40111e-006	0	
8.55532e-007	-7.39617e-006	0	
1.06995e-006	-7.39118e-006	0	
1.28865e-006	-7.38621e-006	0	
1.51108e-006	-7.38129e-006	0	
1.73597e-006	-7.37671e-006	0	
1.96335e-006	-7.37259e-006	0	
2.19241e-006	-7.36879e-006	0	
2.42203e-006	-7.36558e-006	0	
2.6517e-006	-7.36346e-006	0	
2.88051e-006	-7.36248e-006	0	
3.10672e-006	-7.36253e-006	0	
-1.69412e-018	-3.15139e-018	0	
-2.70508e-007	-1.42313e-007	0	
-5.50293e-007	-2.90059e-007	0	
-8.32669e-007	-4.43803e-007	0	
-1.10974e-006	-6.01704e-007	0	
-1.37511e-006	-7.61035e-007	0	
-1.62462e-006	-9.19112e-007	0	
-1.85632e-006	-1.07358e-006	0	
-2.07044e-006	-1.22269e-006	0	
-2.26856e-006	-1.3659e-006	0	
-2.45204e-006	-1.50371e-006	0	
-2.62137e-006	-1.63664e-006	0	
-2.77759e-006	-1.76461e-006	0	
-2.92322e-006	-1.88719e-006	0	
-3.06323e-006	-2.00392e-006	0	
-3.20033e-006	-2.11835e-006	0	
-3.32355e-006	-2.23006e-006	0	
-3.43386e-006	-2.33434e-006	0	
-3.53209e-006	-2.43955e-006	0	
-3.61096e-006	-2.55081e-006	0	
-3.70899e-006	-2.64391e-006	0	
-3.71385e-006	-2.65381e-006	0	
-3.77133e-006	-2.70702e-006	0	
-3.79566e-006	-2.73876e-006	0	
-3.93395e-006	-2.87716e-006	0	
-4.03733e-006	-3.04749e-006	0	
-4.07874e-006	-3.19587e-006	0	
-4.13995e-006	-3.34147e-006	0	
-4.18801e-006	-3.48106e-006	0	
-4.23232e-006	-3.6198e-006	0	
-4.27211e-006	-3.75457e-006	0	
-4.30671e-006	-3.88736e-006	0	
-4.33624e-006	-4.01823e-006	0	
-4.36015e-006	-4.1468e-006	0	
-4.37927e-006	-4.2728e-006	0	
-4.39332e-006	-4.39664e-006	0	
-4.40106e-006	-4.51788e-006	0	
-4.40251e-006	-4.63685e-006	0	
-4.39807e-006	-4.75457e-006	0	
-4.38867e-006	-4.87083e-006	0	
-4.37411e-006	-4.98502e-006	0	
-4.35476e-006	-5.09731e-006	0	
-4.33162e-006	-5.2075e-006	0	
-4.30462e-006	-5.31562e-006	0	
-4.2731e-006	-5.42177e-006	0	
-4.23775e-006	-5.52573e-006	0	
-4.19908e-006	-5.62757e-006	0	
-4.15651e-006	-5.72725e-006	0	
-4.11042e-006	-5.82446e-006	0	
-4.06085e-006	-5.91981e-006	0	
-4.00824e-006	-6.01294e-006	0	
-3.95334e-006	-6.10338e-006	0	
-3.89526e-006	-6.19194e-006	0	
-3.83365e-006	-6.27791e-006	0	
-3.76973e-006	-6.36126e-006	0	
-3.70369e-006	-6.44265e-006	0	
-3.63408e-006	-6.52094e-006	0	
-3.56145e-006	-6.59656e-006	0	
-3.48705e-006	-6.67015e-006	0	
-3.40972e-006	-6.74087e-006	0	
-3.32898e-006	-6.80934e-006	0	
-3.24595e-006	-6.87534e-006	0	
-3.16018e-006	-6.93795e-006	0	
-3.07111e-006	-6.99768e-006	0	
-2.97927e-006	-7.05473e-006	0	
-2.88482e-006	-7.10896e-006	0	
-2.78695e-006	-7.16033e-006	0	
-2.68555e-006	-7.20877e-006	0	
-2.58107e-006	-7.25474e-006	0	
-2.47337e-006	-7.29833e-006	0	
-2.36196e-006	-7.33854e-006	0	
-2.24656e-006	-7.37518e-006	0	
-2.12716e-006	-7.40907e-006	0	
-2.00399e-006	-7.4406e-006	0	
-1.87658e-006	-7.46933e-006	0	
-1.74444e-006	-7.49525e-006	0	
-1.60757e-006	-7.51859e-006	0	
-1.4662e-006	-7.53917e-006	0	
-1.32045e-006	-7.55696e-006	0	
-1.16897e-006	-7.57245e-006	0	
-1.01205e-006	-7.58554e-006	0	
-8.50644e-007	-7.5963e-006	0	
-6.83687e-007	-7.60507e-006	0	
-5.10399e-007	-7.61188e-006	0	
-3.3205e-007	-7.61674e-006	0	
-1.48892e-007	-7.61962e-006	0	
4.08409e-008	-7.62095e-006	0	
2.36018e-007	-7.6213e-006	0	
4.35682e-007	-7.62041e-006	0	
6.40401e-007	-7.618e-006	0	
8.50358e-007	-7.61472e-006	0	
1.06498e-006	-7.61122e-006	0	
1.28368e-006	-7.60782e-006	0	
1.50605e-006	-7.60427e-006	0	
1.73155e-006	-7.60047e-006	0	
1.95976e-006	-7.5968e-006	0	
2.1894e-006	-7.59342e-006	0	
2.41964e-006	-7.59043e-006	0	
2.65033e-006	-7.58845e-006	0	
2.88048e-006	-7.58755e-006	0	
3.10827e-006	-7.58766e-006	0	
-1.67112e-018	-3.08632e-018	0	
-2.63985e-007	-1.39832e-007	0	
-5.33729e-007	-2.84728e-007	0	
-8.05481e-007	-4.346e-007	0	
-1.07328e-006	-5.88442e-007	0	
-1.33178e-006	-7.44592e-007	0	
-1.57724e-006	-9.01013e-007	0	
-1.80764e-006	-1.05569e-006	0	
-2.02245e-006	-1.20705e-006	0	
-2.22214e-006	-1.35422e-006	0	
-2.4075e-006	-1.49695e-006	0	
-2.57936e-006	-1.63513e-006	0	
-2.73902e-006	-1.7685e-006	0	
-2.88855e-006	-1.89682e-006	0	
-3.03056e-006	-2.02059e-006	0	
-3.16554e-006	-2.14154e-006	0	
-3.29036e-006	-2.26014e-006	0	
-3.40392e-006	-2.37513e-006	0	
-3.50591e-006	-2.48644e-006	0	
-3.5995e-006	-2.59251e-006	0	
-3.68938e-006	-2.70271e-006	0	
-3.75425e-006	-2.81986e-006	0	
-3.84677e-006	-2.92341e-006	0	
-3.83614e-006	-2.93306e-006	0	
-3.89152e-006	-2.99389e-006	0	
-3.97894e-006	-3.09138e-006	0	
-3.97315e-006	-3.12935e-006	0	
-4.08573e-006	-3.31707e-006	0	
-4.12344e-006	-3.4665e-006	0	
-4.1742e-006	-3.60966e-006	0	
-4.21249e-006	-3.74877e-006	0	
-4.24812e-006	-3.88698e-006	0	
-4.2789e-006	-4.02214e-006	0	
-4.30418e-006	-4.15596e-006	0	
-4.325e-006	-4.28753e-006	0	
-4.3407e-006	-4.41613e-006	0	
-4.34982e-006	-4.54194e-006	0	
-4.35175e-006	-4.66595e-006	0	
-4.34751e-006	-4.78855e-006	0	
-4.33846e-006	-4.90953e-006	0	
-4.32436e-006	-5.02901e-006	0	
-4.30571e-006	-5.14664e-006	0	
-4.28343e-006	-5.2617e-006	0	
-4.25721e-006	-5.3746e-006	0	
-4.2265e-006	-5.48543e-006	0	