# vtk DataFile Version 4.1
vtk output
ASCII
DATASET UNSTRUCTURED_GRID

POINTS	30401	float
0	0	0	
0	1	0	
0	2	0	
0	3	0	
0	4	0	
0	5	0	
0	6	0	
0	7	0	
0	8	0	
0	9	0	
0	10	0	
0	11	0	
0	12	0	
0	13	0	
0	14	0	
0	15	0	
0	16	0	
0	17	0	
0	18	0	
0	19	0	
0	20	0	
0	21	0	
0	22	0	
0	23	0	
0	24	0	
0	25	0	
0	26	0	
0	27	0	
0	28	0	
0	29	0	
0	30	0	
0	31	0	
0	32	0	
0	33	0	
0	34	0	
0	35	0	
0	36	0	
0	37	0	
0	38	0	
0	39	0	
0	40	0	
0	41	0	
0	42	0	
0	43	0	
0	44	0	
0	45	0	
0	46	0	
0	47	0	
0	48	0	
0	49	0	
0	50	0	
0	51	0	
0	52	0	
0	53	0	
0	54	0	
0	55	0	
0	56	0	
0	57	0	
0	58	0	
0	59	0	
0	60	0	
0	61	0	
0	62	0	
0	63	0	
0	64	0	
0	65	0	
0	66	0	
0	67	0	
0	68	0	
0	69	0	
0	70	0	
0	71	0	
0	72	0	
0	73	0	
0	74	0	
0	75	0	
0	76	0	
0	77	0	
0	78	0	
0	79	0	
0	80	0	
0	81	0	
0	82	0	
0	83	0	
0	84	0	
0	85	0	
0	86	0	
0	87	0	
0	88	0	
0	89	0	
0	90	0	
0	91	0	
0	92	0	
0	93	0	
0	94	0	
0	95	0	
0	96	0	
0	97	0	
0	98	0	
0	99	0	
0	100	0	
1	0	0	
1	1	0	
1	2	0	
1	3	0	
1	4	0	
1	5	0	
1	6	0	
1	7	0	
1	8	0	
1	9	0	
1	10	0	
1	11	0	
1	12	0	
1	13	0	
1	14	0	
1	15	0	
1	16	0	
1	17	0	
1	18	0	
1	19	0	
1	20	0	
1	21	0	
1	22	0	
1	23	0	
1	24	0	
1	25	0	
1	26	0	
1	27	0	
1	28	0	
1	29	0	
1	30	0	
1	31	0	
1	32	0	
1	33	0	
1	34	0	
1	35	0	
1	36	0	
1	37	0	
1	38	0	
1	39	0	
1	40	0	
1	41	0	
1	42	0	
1	43	0	
1	44	0	
1	45	0	
1	46	0	
1	47	0	
1	48	0	
1	49	0	
1	50	0	
1	51	0	
1	52	0	
1	53	0	
1	54	0	
1	55	0	
1	56	0	
1	57	0	
1	58	0	
1	59	0	
1	60	0	
1	61	0	
1	62	0	
1	63	0	
1	64	0	
1	65	0	
1	66	0	
1	67	0	
1	68	0	
1	69	0	
1	70	0	
1	71	0	
1	72	0	
1	73	0	
1	74	0	
1	75	0	
1	76	0	
1	77	0	
1	78	0	
1	79	0	
1	80	0	
1	81	0	
1	82	0	
1	83	0	
1	84	0	
1	85	0	
1	86	0	
1	87	0	
1	88	0	
1	89	0	
1	90	0	
1	91	0	
1	92	0	
1	93	0	
1	94	0	
1	95	0	
1	96	0	
1	97	0	
1	98	0	
1	99	0	
1	100	0	
2	0	0	
2	1	0	
2	2	0	
2	3	0	
2	4	0	
2	5	0	
2	6	0	
2	7	0	
2	8	0	
2	9	0	
2	10	0	
2	11	0	
2	12	0	
2	13	0	
2	14	0	
2	15	0	
2	16	0	
2	17	0	
2	18	0	
2	19	0	
2	20	0	
2	21	0	
2	22	0	
2	23	0	
2	24	0	
2	25	0	
2	26	0	
2	27	0	
2	28	0	
2	29	0	
2	30	0	
2	31	0	
2	32	0	
2	33	0	
2	34	0	
2	35	0	
2	36	0	
2	37	0	
2	38	0	
2	39	0	
2	40	0	
2	41	0	
2	42	0	
2	43	0	
2	44	0	
2	45	0	
2	46	0	
2	47	0	
2	48	0	
2	49	0	
2	50	0	
2	51	0	
2	52	0	
2	53	0	
2	54	0	
2	55	0	
2	56	0	
2	57	0	
2	58	0	
2	59	0	
2	60	0	
2	61	0	
2	62	0	
2	63	0	
2	64	0	
2	65	0	
2	66	0	
2	67	0	
2	68	0	
2	69	0	
2	70	0	
2	71	0	
2	72	0	
2	73	0	
2	74	0	
2	75	0	
2	76	0	
2	77	0	
2	78	0	
2	79	0	
2	80	0	
2	81	0	
2	82	0	
2	83	0	
2	84	0	
2	85	0	
2	86	0	
2	87	0	
2	88	0	
2	89	0	
2	90	0	
2	91	0	
2	92	0	
2	93	0	
2	94	0	
2	95	0	
2	96	0	
2	97	0	
2	98	0	
2	99	0	
2	100	0	
3	0	0	
3	1	0	
3	2	0	
3	3	0	
3	4	0	
3	5	0	
3	6	0	
3	7	0	
3	8	0	
3	9	0	
3	10	0	
3	11	0	
3	12	0	
3	13	0	
3	14	0	
3	15	0	
3	16	0	
3	17	0	
3	18	0	
3	19	0	
3	20	0	
3	21	0	
3	22	0	
3	23	0	
3	24	0	
3	25	0	
3	26	0	
3	27	0	
3	28	0	
3	29	0	
3	30	0	
3	31	0	
3	32	0	
3	33	0	
3	34	0	
3	35	0	
3	36	0	
3	37	0	
3	38	0	
3	39	0	
3	40	0	
3	41	0	
3	42	0	
3	43	0	
3	44	0	
3	45	0	
3	46	0	
3	47	0	
3	48	0	
3	49	0	
3	50	0	
3	51	0	
3	52	0	
3	53	0	
3	54	0	
3	55	0	
3	56	0	
3	57	0	
3	58	0	
3	59	0	
3	60	0	
3	61	0	
3	62	0	
3	63	0	
3	64	0	
3	65	0	
3	66	0	
3	67	0	
3	68	0	
3	69	0	
3	70	0	
3	71	0	
3	72	0	
3	73	0	
3	74	0	
3	75	0	
3	76	0	
3	77	0	
3	78	0	
3	79	0	
3	80	0	
3	81	0	
3	82	0	
3	83	0	
3	84	0	
3	85	0	
3	86	0	
3	87	0	
3	88	0	
3	89	0	
3	90	0	
3	91	0	
3	92	0	
3	93	0	
3	94	0	
3	95	0	
3	96	0	
3	97	0	
3	98	0	
3	99	0	
3	100	0	
4	0	0	
4	1	0	
4	2	0	
4	3	0	
4	4	0	
4	5	0	
4	6	0	
4	7	0	
4	8	0	
4	9	0	
4	10	0	
4	11	0	
4	12	0	
4	13	0	
4	14	0	
4	15	0	
4	16	0	
4	17	0	
4	18	0	
4	19	0	
4	20	0	
4	21	0	
4	22	0	
4	23	0	
4	24	0	
4	25	0	
4	26	0	
4	27	0	
4	28	0	
4	29	0	
4	30	0	
4	31	0	
4	32	0	
4	33	0	
4	34	0	
4	35	0	
4	36	0	
4	37	0	
4	38	0	
4	39	0	
4	40	0	
4	41	0	
4	42	0	
4	43	0	
4	44	0	
4	45	0	
4	46	0	
4	47	0	
4	48	0	
4	49	0	
4	50	0	
4	51	0	
4	52	0	
4	53	0	
4	54	0	
4	55	0	
4	56	0	
4	57	0	
4	58	0	
4	59	0	
4	60	0	
4	61	0	
4	62	0	
4	63	0	
4	64	0	
4	65	0	
4	66	0	
4	67	0	
4	68	0	
4	69	0	
4	70	0	
4	71	0	
4	72	0	
4	73	0	
4	74	0	
4	75	0	
4	76	0	
4	77	0	
4	78	0	
4	79	0	
4	80	0	
4	81	0	
4	82	0	
4	83	0	
4	84	0	
4	85	0	
4	86	0	
4	87	0	
4	88	0	
4	89	0	
4	90	0	
4	91	0	
4	92	0	
4	93	0	
4	94	0	
4	95	0	
4	96	0	
4	97	0	
4	98	0	
4	99	0	
4	100	0	
5	0	0	
5	1	0	
5	2	0	
5	3	0	
5	4	0	
5	5	0	
5	6	0	
5	7	0	
5	8	0	
5	9	0	
5	10	0	
5	11	0	
5	12	0	
5	13	0	
5	14	0	
5	15	0	
5	16	0	
5	17	0	
5	18	0	
5	19	0	
5	20	0	
5	21	0	
5	22	0	
5	23	0	
5	24	0	
5	25	0	
5	26	0	
5	27	0	
5	28	0	
5	29	0	
5	30	0	
5	31	0	
5	32	0	
5	33	0	
5	34	0	
5	35	0	
5	36	0	
5	37	0	
5	38	0	
5	39	0	
5	40	0	
5	41	0	
5	42	0	
5	43	0	
5	44	0	
5	45	0	
5	46	0	
5	47	0	
5	48	0	
5	49	0	
5	50	0	
5	51	0	
5	52	0	
5	53	0	
5	54	0	
5	55	0	
5	56	0	
5	57	0	
5	58	0	
5	59	0	
5	60	0	
5	61	0	
5	62	0	
5	63	0	
5	64	0	
5	65	0	
5	66	0	
5	67	0	
5	68	0	
5	69	0	
5	70	0	
5	71	0	
5	72	0	
5	73	0	
5	74	0	
5	75	0	
5	76	0	
5	77	0	
5	78	0	
5	79	0	
5	80	0	
5	81	0	
5	82	0	
5	83	0	
5	84	0	
5	85	0	
5	86	0	
5	87	0	
5	88	0	
5	89	0	
5	90	0	
5	91	0	
5	92	0	
5	93	0	
5	94	0	
5	95	0	
5	96	0	
5	97	0	
5	98	0	
5	99	0	
5	100	0	
6	0	0	
6	1	0	
6	2	0	
6	3	0	
6	4	0	
6	5	0	
6	6	0	
6	7	0	
6	8	0	
6	9	0	
6	10	0	
6	11	0	
6	12	0	
6	13	0	
6	14	0	
6	15	0	
6	16	0	
6	17	0	
6	18	0	
6	19	0	
6	20	0	
6	21	0	
6	22	0	
6	23	0	
6	24	0	
6	25	0	
6	26	0	
6	27	0	
6	28	0	
6	29	0	
6	30	0	
6	31	0	
6	32	0	
6	33	0	
6	34	0	
6	35	0	
6	36	0	
6	37	0	
6	38	0	
6	39	0	
6	40	0	
6	41	0	
6	42	0	
6	43	0	
6	44	0	
6	45	0	
6	46	0	
6	47	0	
6	48	0	
6	49	0	
6	50	0	
6	51	0	
6	52	0	
6	53	0	
6	54	0	
6	55	0	
6	56	0	
6	57	0	
6	58	0	
6	59	0	
6	60	0	
6	61	0	
6	62	0	
6	63	0	
6	64	0	
6	65	0	
6	66	0	
6	67	0	
6	68	0	
6	69	0	
6	70	0	
6	71	0	
6	72	0	
6	73	0	
6	74	0	
6	75	0	
6	76	0	
6	77	0	
6	78	0	
6	79	0	
6	80	0	
6	81	0	
6	82	0	
6	83	0	
6	84	0	
6	85	0	
6	86	0	
6	87	0	
6	88	0	
6	89	0	
6	90	0	
6	91	0	
6	92	0	
6	93	0	
6	94	0	
6	95	0	
6	96	0	
6	97	0	
6	98	0	
6	99	0	
6	100	0	
7	0	0	
7	1	0	
7	2	0	
7	3	0	
7	4	0	
7	5	0	
7	6	0	
7	7	0	
7	8	0	
7	9	0	
7	10	0	
7	11	0	
7	12	0	
7	13	0	
7	14	0	
7	15	0	
7	16	0	
7	17	0	
7	18	0	
7	19	0	
7	20	0	
7	21	0	
7	22	0	
7	23	0	
7	24	0	
7	25	0	
7	26	0	
7	27	0	
7	28	0	
7	29	0	
7	30	0	
7	31	0	
7	32	0	
7	33	0	
7	34	0	
7	35	0	
7	36	0	
7	37	0	
7	38	0	
7	39	0	
7	40	0	
7	41	0	
7	42	0	
7	43	0	
7	44	0	
7	45	0	
7	46	0	
7	47	0	
7	48	0	
7	49	0	
7	50	0	
7	51	0	
7	52	0	
7	53	0	
7	54	0	
7	55	0	
7	56	0	
7	57	0	
7	58	0	
7	59	0	
7	60	0	
7	61	0	
7	62	0	
7	63	0	
7	64	0	
7	65	0	
7	66	0	
7	67	0	
7	68	0	
7	69	0	
7	70	0	
7	71	0	
7	72	0	
7	73	0	
7	74	0	
7	75	0	
7	76	0	
7	77	0	
7	78	0	
7	79	0	
7	80	0	
7	81	0	
7	82	0	
7	83	0	
7	84	0	
7	85	0	
7	86	0	
7	87	0	
7	88	0	
7	89	0	
7	90	0	
7	91	0	
7	92	0	
7	93	0	
7	94	0	
7	95	0	
7	96	0	
7	97	0	
7	98	0	
7	99	0	
7	100	0	
8	0	0	
8	1	0	
8	2	0	
8	3	0	
8	4	0	
8	5	0	
8	6	0	
8	7	0	
8	8	0	
8	9	0	
8	10	0	
8	11	0	
8	12	0	
8	13	0	
8	14	0	
8	15	0	
8	16	0	
8	17	0	
8	18	0	
8	19	0	
8	20	0	
8	21	0	
8	22	0	
8	23	0	
8	24	0	
8	25	0	
8	26	0	
8	27	0	
8	28	0	
8	29	0	
8	30	0	
8	31	0	
8	32	0	
8	33	0	
8	34	0	
8	35	0	
8	36	0	
8	37	0	
8	38	0	
8	39	0	
8	40	0	
8	41	0	
8	42	0	
8	43	0	
8	44	0	
8	45	0	
8	46	0	
8	47	0	
8	48	0	
8	49	0	
8	50	0	
8	51	0	
8	52	0	
8	53	0	
8	54	0	
8	55	0	
8	56	0	
8	57	0	
8	58	0	
8	59	0	
8	60	0	
8	61	0	
8	62	0	
8	63	0	
8	64	0	
8	65	0	
8	66	0	
8	67	0	
8	68	0	
8	69	0	
8	70	0	
8	71	0	
8	72	0	
8	73	0	
8	74	0	
8	75	0	
8	76	0	
8	77	0	
8	78	0	
8	79	0	
8	80	0	
8	81	0	
8	82	0	
8	83	0	
8	84	0	
8	85	0	
8	86	0	
8	87	0	
8	88	0	
8	89	0	
8	90	0	
8	91	0	
8	92	0	
8	93	0	
8	94	0	
8	95	0	
8	96	0	
8	97	0	
8	98	0	
8	99	0	
8	100	0	
9	0	0	
9	1	0	
9	2	0	
9	3	0	
9	4	0	
9	5	0	
9	6	0	
9	7	0	
9	8	0	
9	9	0	
9	10	0	
9	11	0	
9	12	0	
9	13	0	
9	14	0	
9	15	0	
9	16	0	
9	17	0	
9	18	0	
9	19	0	
9	20	0	
9	21	0	
9	22	0	
9	23	0	
9	24	0	
9	25	0	
9	26	0	
9	27	0	
9	28	0	
9	29	0	
9	30	0	
9	31	0	
9	32	0	
9	33	0	
9	34	0	
9	35	0	
9	36	0	
9	37	0	
9	38	0	
9	39	0	
9	40	0	
9	41	0	
9	42	0	
9	43	0	
9	44	0	
9	45	0	
9	46	0	
9	47	0	
9	48	0	
9	49	0	
9	50	0	
9	51	0	
9	52	0	
9	53	0	
9	54	0	
9	55	0	
9	56	0	
9	57	0	
9	58	0	
9	59	0	
9	60	0	
9	61	0	
9	62	0	
9	63	0	
9	64	0	
9	65	0	
9	66	0	
9	67	0	
9	68	0	
9	69	0	
9	70	0	
9	71	0	
9	72	0	
9	73	0	
9	74	0	
9	75	0	
9	76	0	
9	77	0	
9	78	0	
9	79	0	
9	80	0	
9	81	0	
9	82	0	
9	83	0	
9	84	0	
9	85	0	
9	86	0	
9	87	0	
9	88	0	
9	89	0	
9	90	0	
9	91	0	
9	92	0	
9	93	0	
9	94	0	
9	95	0	
9	96	0	
9	97	0	
9	98	0	
9	99	0	
9	100	0	
10	0	0	
10	1	0	
10	2	0	
10	3	0	
10	4	0	
10	5	0	
10	6	0	
10	7	0	
10	8	0	
10	9	0	
10	10	0	
10	11	0	
10	12	0	
10	13	0	
10	14	0	
10	15	0	
10	16	0	
10	17	0	
10	18	0	
10	19	0	
10	20	0	
10	21	0	
10	22	0	
10	23	0	
10	24	0	
10	25	0	
10	26	0	
10	27	0	
10	28	0	
10	29	0	
10	30	0	
10	31	0	
10	32	0	
10	33	0	
10	34	0	
10	35	0	
10	36	0	
10	37	0	
10	38	0	
10	39	0	
10	40	0	
10	41	0	
10	42	0	
10	43	0	
10	44	0	
10	45	0	
10	46	0	
10	47	0	
10	48	0	
10	49	0	
10	50	0	
10	51	0	
10	52	0	
10	53	0	
10	54	0	
10	55	0	
10	56	0	
10	57	0	
10	58	0	
10	59	0	
10	60	0	
10	61	0	
10	62	0	
10	63	0	
10	64	0	
10	65	0	
10	66	0	
10	67	0	
10	68	0	
10	69	0	
10	70	0	
10	71	0	
10	72	0	
10	73	0	
10	74	0	
10	75	0	
10	76	0	
10	77	0	
10	78	0	
10	79	0	
10	80	0	
10	81	0	
10	82	0	
10	83	0	
10	84	0	
10	85	0	
10	86	0	
10	87	0	
10	88	0	
10	89	0	
10	90	0	
10	91	0	
10	92	0	
10	93	0	
10	94	0	
10	95	0	
10	96	0	
10	97	0	
10	98	0	
10	99	0	
10	100	0	
11	0	0	
11	1	0	
11	2	0	
11	3	0	
11	4	0	
11	5	0	
11	6	0	
11	7	0	
11	8	0	
11	9	0	
11	10	0	
11	11	0	
11	12	0	
11	13	0	
11	14	0	
11	15	0	
11	16	0	
11	17	0	
11	18	0	
11	19	0	
11	20	0	
11	21	0	
11	22	0	
11	23	0	
11	24	0	
11	25	0	
11	26	0	
11	27	0	
11	28	0	
11	29	0	
11	30	0	
11	31	0	
11	32	0	
11	33	0	
11	34	0	
11	35	0	
11	36	0	
11	37	0	
11	38	0	
11	39	0	
11	40	0	
11	41	0	
11	42	0	
11	43	0	
11	44	0	
11	45	0	
11	46	0	
11	47	0	
11	48	0	
11	49	0	
11	50	0	
11	51	0	
11	52	0	
11	53	0	
11	54	0	
11	55	0	
11	56	0	
11	57	0	
11	58	0	
11	59	0	
11	60	0	
11	61	0	
11	62	0	
11	63	0	
11	64	0	
11	65	0	
11	66	0	
11	67	0	
11	68	0	
11	69	0	
11	70	0	
11	71	0	
11	72	0	
11	73	0	
11	74	0	
11	75	0	
11	76	0	
11	77	0	
11	78	0	
11	79	0	
11	80	0	
11	81	0	
11	82	0	
11	83	0	
11	84	0	
11	85	0	
11	86	0	
11	87	0	
11	88	0	
11	89	0	
11	90	0	
11	91	0	
11	92	0	
11	93	0	
11	94	0	
11	95	0	
11	96	0	
11	97	0	
11	98	0	
11	99	0	
11	100	0	
12	0	0	
12	1	0	
12	2	0	
12	3	0	
12	4	0	
12	5	0	
12	6	0	
12	7	0	
12	8	0	
12	9	0	
12	10	0	
12	11	0	
12	12	0	
12	13	0	
[...]
POINT_DATA	30401
VECTORS d float
-9.10311e-018	-1.64401e-017	0	
-4.90479e-007	-5.02683e-007	0	
-8.52194e-007	-7.96675e-007	0	
-1.17393e-006	-1.02309e-006	0	
-1.46557e-006	-1.20657e-006	0	
-1.73426e-006	-1.35335e-006	0	
-1.979e-006	-1.46691e-006	0	
-2.19622e-006	-1.54491e-006	0	
-2.37142e-006	-1.58067e-006	0	
-2.4829e-006	-1.58372e-006	0	
-2.64247e-006	-1.63025e-006	0	
-2.84817e-006	-1.73253e-006	0	
-2.91397e-006	-1.74551e-006	0	
-3.25388e-006	-2.29786e-006	0	
-3.48362e-006	-2.95102e-006	0	
-2.95312e-006	-3.89347e-006	0	
-3.09467e-006	-3.99242e-006	0	
-3.40496e-006	-3.99916e-006	0	
-3.71072e-006	-3.99693e-006	0	
-3.97739e-006	-4.00678e-006	0	
-4.2052e-006	-4.04542e-006	0	
-4.41076e-006	-4.1212e-006	0	
-4.61404e-006	-4.22218e-006	0	
-4.81952e-006	-4.32639e-006	0	
-5.01489e-006	-4.41801e-006	0	
-5.18213e-006	-4.49383e-006	0	
-5.31014e-006	-4.56059e-006	0	
-5.39884e-006	-4.62642e-006	0	
-5.45426e-006	-4.69585e-006	0	
-5.48339e-006	-4.77017e-006	0	
-5.49229e-006	-4.84928e-006	0	
-5.48593e-006	-4.93252e-006	0	
-5.46823e-006	-5.019e-006	0	
-5.44217e-006	-5.10785e-006	0	
-5.40999e-006	-5.19837e-006	0	
-5.37341e-006	-5.29003e-006	0	
-5.33386e-006	-5.38253e-006	0	
-5.29263e-006	-5.4757e-006	0	
-5.25098e-006	-5.56938e-006	0	
-5.21017e-006	-5.66339e-006	0	
-5.17149e-006	-5.75742e-006	0	
-5.13621e-006	-5.8509e-006	0	
-5.10544e-006	-5.94298e-006	0	
-5.08007e-006	-6.03246e-006	0	
-5.06049e-006	-6.11781e-006	0	
-5.04653e-006	-6.19722e-006	0	
-5.03724e-006	-6.2687e-006	0	
-5.03091e-006	-6.33025e-006	0	
-5.02503e-006	-6.38025e-006	0	
-5.01625e-006	-6.41774e-006	0	
-5.00097e-006	-6.44376e-006	0	
-4.9778e-006	-6.46227e-006	0	
-4.94912e-006	-6.47676e-006	0	
-4.92235e-006	-6.49182e-006	0	
-4.89969e-006	-6.50986e-006	0	
-4.88007e-006	-6.53525e-006	0	
-4.85657e-006	-6.56607e-006	0	
-4.82096e-006	-6.59036e-006	0	
-4.77263e-006	-6.60602e-006	0	
-4.71432e-006	-6.61647e-006	0	
-4.64485e-006	-6.61762e-006	0	
-4.5628e-006	-6.61583e-006	0	
-4.47158e-006	-6.61496e-006	0	
-4.37181e-006	-6.61084e-006	0	
-4.26169e-006	-6.60669e-006	0	
-4.14229e-006	-6.60426e-006	0	
-4.01877e-006	-6.60228e-006	0	
-3.88672e-006	-6.60028e-006	0	
-3.74666e-006	-6.59907e-006	0	
-3.60249e-006	-6.59939e-006	0	
-3.4515e-006	-6.60102e-006	0	
-3.29405e-006	-6.60301e-006	0	
-3.13196e-006	-6.60768e-006	0	
-2.96451e-006	-6.61261e-006	0	
-2.79201e-006	-6.61827e-006	0	
-2.61607e-006	-6.62441e-006	0	
-2.4342e-006	-6.62987e-006	0	
-2.24816e-006	-6.63687e-006	0	
-2.05911e-006	-6.64428e-006	0	
-1.86539e-006	-6.65138e-006	0	
-1.66833e-006	-6.65864e-006	0	
-1.4685e-006	-6.66327e-006	0	
-1.26309e-006	-6.66789e-006	0	
-1.05511e-006	-6.67224e-006	0	
-8.4478e-007	-6.67325e-006	0	
-6.32009e-007	-6.67689e-006	0	
-4.15e-007	-6.68023e-006	0	
-1.9263e-007	-6.67899e-006	0	
2.97934e-008	-6.67728e-006	0	
2.57159e-007	-6.67658e-006	0	
4.88648e-007	-6.67444e-006	0	
7.21799e-007	-6.66978e-006	0	
9.58059e-007	-6.66593e-006	0	
1.19865e-006	-6.66238e-006	0	
1.44116e-006	-6.65699e-006	0	
1.68716e-006	-6.65364e-006	0	
1.93305e-006	-6.65224e-006	0	
2.18099e-006	-6.64868e-006	0	
2.43031e-006	-6.64682e-006	0	
2.67891e-006	-6.64759e-006	0	
2.92877e-006	-6.6455e-006	0	
-2.74206e-018	-5.47654e-018	0	
-3.74659e-007	-2.74544e-007	0	
-7.45379e-007	-5.37545e-007	0	
-1.08484e-006	-7.72805e-007	0	
-1.39208e-006	-9.69342e-007	0	
-1.67383e-006	-1.13516e-006	0	
-1.93086e-006	-1.27406e-006	0	
-2.16033e-006	-1.38927e-006	0	
-2.34984e-006	-1.48807e-006	0	
-2.50406e-006	-1.59879e-006	0	
-2.71222e-006	-1.74079e-006	0	
-2.85567e-006	-1.78948e-006	0	
-2.93635e-006	-1.79767e-006	0	
-3.05591e-006	-1.84036e-006	0	
-3.17398e-006	-1.91656e-006	0	
-2.93838e-006	-3.61052e-006	0	
-3.09939e-006	-3.67555e-006	0	
-3.39374e-006	-3.65743e-006	0	
-3.71584e-006	-3.66258e-006	0	
-3.96242e-006	-3.7098e-006	0	
-4.17227e-006	-3.78954e-006	0	
-4.36535e-006	-3.8928e-006	0	
-4.56368e-006	-4.01189e-006	0	
-4.77193e-006	-4.13396e-006	0	
-4.97375e-006	-4.24907e-006	0	
-5.14585e-006	-4.35495e-006	0	
-5.27539e-006	-4.45527e-006	0	
-5.36359e-006	-4.55359e-006	0	
-5.41801e-006	-4.6512e-006	0	
-5.44608e-006	-4.74842e-006	0	
-5.454e-006	-4.84552e-006	0	
-5.44686e-006	-4.94261e-006	0	
-5.42861e-006	-5.03955e-006	0	
-5.40223e-006	-5.13618e-006	0	
-5.36989e-006	-5.23235e-006	0	
-5.33324e-006	-5.32794e-006	0	
-5.29367e-006	-5.42293e-006	0	
-5.25245e-006	-5.51729e-006	0	
-5.21085e-006	-5.61098e-006	0	
-5.17017e-006	-5.70389e-006	0	
-5.13178e-006	-5.7958e-006	0	
-5.09703e-006	-5.88629e-006	0	
-5.06718e-006	-5.97473e-006	0	
-5.04322e-006	-6.06028e-006	0	
-5.02567e-006	-6.14186e-006	0	
-5.01442e-006	-6.21829e-006	0	
-5.00854e-006	-6.28828e-006	0	
-5.00622e-006	-6.35074e-006	0	
-5.0047e-006	-6.40507e-006	0	
-5.00037e-006	-6.45154e-006	0	
-4.9896e-006	-6.49218e-006	0	
-4.9732e-006	-6.52992e-006	0	
-4.95394e-006	-6.56165e-006	0	
-4.92933e-006	-6.58331e-006	0	
-4.90116e-006	-6.59951e-006	0	
-4.87285e-006	-6.6157e-006	0	
-4.84441e-006	-6.63319e-006	0	
-4.8117e-006	-6.65253e-006	0	
-4.76685e-006	-6.67206e-006	0	
-4.71053e-006	-6.68796e-006	0	
-4.64295e-006	-6.69891e-006	0	
-4.56121e-006	-6.70618e-006	0	
-4.47035e-006	-6.71206e-006	0	
-4.3708e-006	-6.71661e-006	0	
-4.26123e-006	-6.72111e-006	0	
-4.14249e-006	-6.72547e-006	0	
-4.01827e-006	-6.72939e-006	0	
-3.88622e-006	-6.73444e-006	0	
-3.74612e-006	-6.74046e-006	0	
-3.60059e-006	-6.74694e-006	0	
-3.4494e-006	-6.75433e-006	0	
-3.29201e-006	-6.76338e-006	0	
-3.12849e-006	-6.7727e-006	0	
-2.96093e-006	-6.78215e-006	0	
-2.78841e-006	-6.79295e-006	0	
-2.6124e-006	-6.80386e-006	0	
-2.42989e-006	-6.81449e-006	0	
-2.24398e-006	-6.82502e-006	0	
-2.05544e-006	-6.8358e-006	0	
-1.86171e-006	-6.84718e-006	0	
-1.66414e-006	-6.85731e-006	0	
-1.46543e-006	-6.86685e-006	0	
-1.26112e-006	-6.87504e-006	0	
-1.05387e-006	-6.88173e-006	0	
-8.43707e-007	-6.8892e-006	0	
-6.30309e-007	-6.89524e-006	0	
-4.13428e-007	-6.89888e-006	0	
-1.92707e-007	-6.90246e-006	0	
2.98936e-008	-6.90542e-006	0	
2.56755e-007	-6.90617e-006	0	
4.87492e-007	-6.90552e-006	0	
7.20389e-007	-6.90523e-006	0	
9.56575e-007	-6.90532e-006	0	
1.19667e-006	-6.90326e-006	0	
1.43937e-006	-6.90122e-006	0	
1.68554e-006	-6.8996e-006	0	
1.93175e-006	-6.89749e-006	0	
2.17971e-006	-6.89579e-006	0	
2.43009e-006	-6.89578e-006	0	
2.679e-006	-6.89571e-006	0	
2.92607e-006	-6.89486e-006	0	
-1.78704e-018	-4.18739e-018	0	
-3.18287e-007	-1.97148e-007	0	
-6.68685e-007	-4.09812e-007	0	
-1.00596e-006	-6.18718e-007	0	
-1.31899e-006	-8.11244e-007	0	
-1.60752e-006	-9.85505e-007	0	
-1.87058e-006	-1.14272e-006	0	
-2.10507e-006	-1.2863e-006	0	
-2.30634e-006	-1.41806e-006	0	
-2.48556e-006	-1.53753e-006	0	
-2.67658e-006	-1.65317e-006	0	
-2.83608e-006	-1.75521e-006	0	
-2.96994e-006	-1.85878e-006	0	
-3.11547e-006	-1.94365e-006	0	
-3.17217e-006	-1.95259e-006	0	
-3.29045e-006	-2.01878e-006	0	
-3.24029e-006	-3.12054e-006	0	
-3.39173e-006	-3.23603e-006	0	
-3.71811e-006	-3.26148e-006	0	
-3.93174e-006	-3.3479e-006	0	
-4.11464e-006	-3.48014e-006	0	
-4.29366e-006	-3.62904e-006	0	
-4.48821e-006	-3.79055e-006	0	
-4.70582e-006	-3.95072e-006	0	
-4.9221e-006	-4.09684e-006	0	
-5.10183e-006	-4.22952e-006	0	
-5.23069e-006	-4.35783e-006	0	
-5.31721e-006	-4.48502e-006	0	
-5.37157e-006	-4.60863e-006	0	
-5.40018e-006	-4.72748e-006	0	
-5.40863e-006	-4.84216e-006	0	
-5.40213e-006	-4.95323e-006	0	
-5.38466e-006	-5.06099e-006	0	
-5.35908e-006	-5.16574e-006	0	
-5.32752e-006	-5.2678e-006	0	
-5.29157e-006	-5.36746e-006	0	
-5.2526e-006	-5.46502e-006	0	
-5.21188e-006	-5.56072e-006	0	
-5.17069e-006	-5.65475e-006	0	
-5.13038e-006	-5.74719e-006	0	
-5.09237e-006	-5.83804e-006	0	
-5.05814e-006	-5.92714e-006	0	
-5.02906e-006	-6.01413e-006	0	
-5.00624e-006	-6.09846e-006	0	
-4.99032e-006	-6.17938e-006	0	
-4.98122e-006	-6.25606e-006	0	
-4.978e-006	-6.32769e-006	0	
-4.97873e-006	-6.39368e-006	0	
-4.98058e-006	-6.45379e-006	0	
-4.98026e-006	-6.50816e-006	0	
-4.9752e-006	-6.55698e-006	0	
-4.96566e-006	-6.60094e-006	0	
-4.9524e-006	-6.6421e-006	0	
-4.9376e-006	-6.68083e-006	0	
-4.91808e-006	-6.70876e-006	0	
-4.88503e-006	-6.72305e-006	0	
-4.84873e-006	-6.73646e-006	0	
-4.80853e-006	-6.74973e-006	0	
-4.76229e-006	-6.76276e-006	0	
-4.70724e-006	-6.77657e-006	0	
-4.63935e-006	-6.79082e-006	0	
-4.55884e-006	-6.80343e-006	0	
-4.46771e-006	-6.81417e-006	0	
-4.36768e-006	-6.8248e-006	0	
-4.25829e-006	-6.83513e-006	0	
-4.13994e-006	-6.84563e-006	0	
-4.01422e-006	-6.85638e-006	0	
-3.88157e-006	-6.86731e-006	0	
-3.74161e-006	-6.87968e-006	0	
-3.59557e-006	-6.89299e-006	0	
-3.44414e-006	-6.90661e-006	0	
-3.28676e-006	-6.92118e-006	0	
-3.12309e-006	-6.93578e-006	0	
-2.95513e-006	-6.9508e-006	0	
-2.78252e-006	-6.96642e-006	0	
-2.60556e-006	-6.9821e-006	0	
-2.42318e-006	-6.99814e-006	0	
-2.23844e-006	-7.01314e-006	0	
-2.05018e-006	-7.02764e-006	0	
-1.85635e-006	-7.04311e-006	0	
-1.65868e-006	-7.05746e-006	0	
-1.45977e-006	-7.07109e-006	0	
-1.25689e-006	-7.08403e-006	0	
-1.05019e-006	-7.09507e-006	0	
-8.40393e-007	-7.10576e-006	0	
-6.27439e-007	-7.11493e-006	0	
-4.10536e-007	-7.1224e-006	0	
-1.90912e-007	-7.12941e-006	0	
3.11951e-008	-7.13401e-006	0	
2.57184e-007	-7.13799e-006	0	
4.872e-007	-7.14108e-006	0	
7.20332e-007	-7.14315e-006	0	
9.56358e-007	-7.14521e-006	0	
1.1962e-006	-7.14575e-006	0	
1.43874e-006	-7.14528e-006	0	
1.68352e-006	-7.1451e-006	0	
1.93018e-006	-7.14412e-006	0	
2.17972e-006	-7.14346e-006	0	
2.42997e-006	-7.14423e-006	0	
2.67857e-006	-7.14374e-006	0	
2.92822e-006	-7.14318e-006	0	
-1.76901e-018	-3.71585e-018	0	
-2.99191e-007	-1.6877e-007	0	
-6.22566e-007	-3.47643e-007	0	
-9.45388e-007	-5.31931e-007	0	
-1.25402e-006	-7.13739e-007	0	
-1.5421e-006	-8.87893e-007	0	
-1.80649e-006	-1.05272e-006	0	
-2.04453e-006	-1.20796e-006	0	
-2.25616e-006	-1.35215e-006	0	
-2.44975e-006	-1.48345e-006	0	
-2.63488e-006	-1.60659e-006	0	
-2.80335e-006	-1.72457e-006	0	
-2.95396e-006	-1.83361e-006	0	
-3.09511e-006	-1.94377e-006	0	
-3.21039e-006	-2.06169e-006	0	
-3.35622e-006	-2.1706e-006	0	
-3.39964e-006	-2.18726e-006	0	
-3.54719e-006	-2.51306e-006	0	
-3.71087e-006	-2.78668e-006	0	
-3.85555e-006	-2.96909e-006	0	
-4.02432e-006	-3.15371e-006	0	
-4.18302e-006	-3.34863e-006	0	
-4.37194e-006	-3.55781e-006	0	
-4.6119e-006	-3.76587e-006	0	
-4.86138e-006	-3.95041e-006	0	
-5.05274e-006	-4.11378e-006	0	
-5.17639e-006	-4.27375e-006	0	
-5.25958e-006	-4.43252e-006	0	
-5.31632e-006	-4.58082e-006	0	
-5.34688e-006	-4.71858e-006	0	
-5.35676e-006	-4.84889e-006	0	
-5.35209e-006	-4.97247e-006	0	
-5.33659e-006	-5.08984e-006	0	
-5.31291e-006	-5.20179e-006	0	
-5.28308e-006	-5.30902e-006	0	
-5.24857e-006	-5.41219e-006	0	
-5.21074e-006	-5.51194e-006	0	
-5.17088e-006	-5.60878e-006	0	
-5.13029e-006	-5.70314e-006	0	
-5.09033e-006	-5.79538e-006	0	
-5.05249e-006	-5.88578e-006	0	
-5.01837e-006	-5.97447e-006	0	
-4.98953e-006	-6.06137e-006	0	
-4.96731e-006	-6.14612e-006	0	
-4.95251e-006	-6.22816e-006	0	
-4.94516e-006	-6.30674e-006	0	
-4.94426e-006	-6.3811e-006	0	
-4.94785e-006	-6.45067e-006	0	
-4.95315e-006	-6.51502e-006	0	
-4.95715e-006	-6.57391e-006	0	
-4.95764e-006	-6.62707e-006	0	
-4.95398e-006	-6.67446e-006	0	
-4.94643e-006	-6.71649e-006	0	
-4.93559e-006	-6.75456e-006	0	
-4.91845e-006	-6.79105e-006	0	
-4.89545e-006	-6.82459e-006	0	
-4.86284e-006	-6.84648e-006	0	
-4.81581e-006	-6.85744e-006	0	
-4.7633e-006	-6.8688e-006	0	
-4.70463e-006	-6.88026e-006	0	
-4.63679e-006	-6.89211e-006	0	
-4.55695e-006	-6.90568e-006	0	
-4.46539e-006	-6.91983e-006	0	
-4.3641e-006	-6.93484e-006	0	
-4.25373e-006	-6.94957e-006	0	
-4.13468e-006	-6.96528e-006	0	
-4.00816e-006	-6.98272e-006	0	
-3.87455e-006	-6.99976e-006	0	
-3.73454e-006	-7.01806e-006	0	
-3.58815e-006	-7.03743e-006	0	
-3.43582e-006	-7.05615e-006	0	
-3.27794e-006	-7.07649e-006	0	
-3.11517e-006	-7.09756e-006	0	
-2.94717e-006	-7.1183e-006	0	
-2.77387e-006	-7.13995e-006	0	
-2.59632e-006	-7.1613e-006	0	
-2.41476e-006	-7.18196e-006	0	
-2.23024e-006	-7.20241e-006	0	
-2.04193e-006	-7.223e-006	0	
-1.84893e-006	-7.24311e-006	0	
-1.6526e-006	-7.26156e-006	0	
-1.45266e-006	-7.27927e-006	0	
-1.24991e-006	-7.29602e-006	0	
-1.04394e-006	-7.31035e-006	0	
-8.3431e-007	-7.32461e-006	0	
-6.22579e-007	-7.3377e-006	0	
-4.07791e-007	-7.34864e-006	0	
-1.88042e-007	-7.35815e-006	0	
3.45418e-008	-7.36607e-006	0	
2.59648e-007	-7.37257e-006	0	
4.87871e-007	-7.37862e-006	0	
7.21165e-007	-7.38261e-006	0	
9.57765e-007	-7.38547e-006	0	
1.19676e-006	-7.38763e-006	0	
1.43857e-006	-7.38916e-006	0	
1.68321e-006	-7.39057e-006	0	
1.93016e-006	-7.39098e-006	0	
2.18047e-006	-7.39128e-006	0	
2.4302e-006	-7.39205e-006	0	
2.67912e-006	-7.39188e-006	0	
2.92884e-006	-7.39139e-006	0	
-1.77445e-018	-3.42522e-018	0	
-2.8878e-007	-1.54851e-007	0	
-5.93275e-007	-3.16829e-007	0	
-9.00571e-007	-4.85707e-007	0	
-1.19945e-006	-6.57391e-007	0	
-1.48255e-006	-8.27632e-007	0	
-1.74551e-006	-9.93493e-007	0	
-1.98602e-006	-1.15279e-006	0	
-2.20462e-006	-1.30352e-006	0	
-2.40542e-006	-1.44487e-006	0	
-2.59225e-006	-1.57897e-006	0	
-2.76397e-006	-1.7079e-006	0	
-2.92062e-006	-1.83141e-006	0	
-3.06364e-006	-1.95076e-006	0	
-3.19686e-006	-2.06502e-006	0	
-3.33074e-006	-2.18357e-006	0	
-3.42804e-006	-2.31328e-006	0	
-3.58248e-006	-2.46479e-006	0	
-3.66926e-006	-2.51926e-006	0	
-3.70968e-006	-2.548e-006	0	
-3.9092e-006	-2.82871e-006	0	
-4.03092e-006	-3.07274e-006	0	
-4.21053e-006	-3.3058e-006	0	
-4.47999e-006	-3.55134e-006	0	
-4.78542e-006	-3.78892e-006	0	
-4.99781e-006	-4.01384e-006	0	
-5.10444e-006	-4.21974e-006	0	
-5.18976e-006	-4.41306e-006	0	
-5.25568e-006	-4.58051e-006	0	
-5.28864e-006	-4.73166e-006	0	
-5.29979e-006	-4.87467e-006	0	
-5.29827e-006	-5.00779e-006	0	
-5.28567e-006	-5.13201e-006	0	
-5.26469e-006	-5.24916e-006	0	
-5.23738e-006	-5.35998e-006	0	
-5.20488e-006	-5.46544e-006	0	
-5.16855e-006	-5.56651e-006	0	
-5.12977e-006	-5.6639e-006	0	
-5.08979e-006	-5.7582e-006	0	
-5.04994e-006	-5.85006e-006	0	
-5.01178e-006	-5.94008e-006	0	
-4.97709e-006	-6.02871e-006	0	
-4.94771e-006	-6.11612e-006	0	
-4.92535e-006	-6.20214e-006	0	
-4.91117e-006	-6.28619e-006	0	
-4.90536e-006	-6.3674e-006	0	
-4.90698e-006	-6.44481e-006	0	
-4.91397e-006	-6.51758e-006	0	
-4.9235e-006	-6.58508e-006	0	
-4.93259e-006	-6.64688e-006	0	
-4.93886e-006	-6.70271e-006	0	
-4.94094e-006	-6.75266e-006	0	
-4.93835e-006	-6.79722e-006	0	
-4.93071e-006	-6.83741e-006	0	
-4.91689e-006	-6.87406e-006	0	
-4.89592e-006	-6.90843e-006	0	
-4.86571e-006	-6.94242e-006	0	
-4.82762e-006	-6.97147e-006	0	
-4.77355e-006	-6.98686e-006	0	
-4.7076e-006	-6.99678e-006	0	
-4.63423e-006	-7.00705e-006	0	
-4.5535e-006	-7.01846e-006	0	
-4.46226e-006	-7.03157e-006	0	
-4.35948e-006	-7.04871e-006	0	
-4.24752e-006	-7.06778e-006	0	
-4.12819e-006	-7.08811e-006	0	
-4.00103e-006	-7.11004e-006	0	
-3.86643e-006	-7.13233e-006	0	
-3.72612e-006	-7.15666e-006	0	
-3.57919e-006	-7.18171e-006	0	
-3.4261e-006	-7.20631e-006	0	
-3.26733e-006	-7.23334e-006	0	
-3.10452e-006	-7.2613e-006	0	
-2.93653e-006	-7.28771e-006	0	
-2.76271e-006	-7.315e-006	0	
-2.58532e-006	-7.3424e-006	0	
-2.40429e-006	-7.36871e-006	0	
-2.21924e-006	-7.39433e-006	0	
-2.03072e-006	-7.41975e-006	0	
-1.83861e-006	-7.44522e-006	0	
-1.64374e-006	-7.46832e-006	0	
-1.44421e-006	-7.48987e-006	0	
-1.24159e-006	-7.51106e-006	0	
-1.03692e-006	-7.52957e-006	0	
-8.28351e-007	-7.5469e-006	0	
-6.16944e-007	-7.56368e-006	0	
-4.0258e-007	-7.57809e-006	0	
-1.83853e-007	-7.59048e-006	0	
3.81352e-008	-7.60123e-006	0	
2.62678e-007	-7.61081e-006	0	
4.89755e-007	-7.61887e-006	0	
7.22422e-007	-7.62471e-006	0	
9.57877e-007	-7.62809e-006	0	
1.19579e-006	-7.6318e-006	0	
1.43768e-006	-7.63412e-006	0	
1.68307e-006	-7.63687e-006	0	
1.93044e-006	-7.6383e-006	0	
2.17984e-006	-7.63833e-006	0	
2.43028e-006	-7.63862e-006	0	
2.68113e-006	-7.63913e-006	0	
2.93077e-006	-7.64048e-006	0	
-1.76579e-018	-3.2856e-018	0	
-2.81603e-007	-1.4838e-007	0	
-5.72403e-007	-3.02524e-007	0	
-8.65839e-007	-4.63043e-007	0	
-1.15403e-006	-6.27857e-007	0	
-1.43035e-006	-7.93947e-007	0	
-1.69023e-006	-9.58473e-007	0	
-1.93126e-006	-1.11902e-006	0	
-2.15332e-006	-1.27372e-006	0	
-2.35812e-006	-1.42184e-006	0	
-2.54743e-006	-1.564e-006	0	
-2.72174e-006	-1.70116e-006	0	
-2.88157e-006	-1.8336e-006	0	
-3.02867e-006	-1.9615e-006	0	
-3.1661e-006	-2.08562e-006	0	
-3.29437e-006	-2.20863e-006	0	
-3.41424e-006	-2.32719e-006	0	
-3.54777e-006	-2.44322e-006	0	
-3.64887e-006	-2.55407e-006	0	
-3.73736e-006	-2.6781e-006	0	
-3.82866e-006	-2.76627e-006	0	
-3.83758e-006	-2.78299e-006	0	
-4.02906e-006	-2.99609e-006	0	
-4.27964e-006	-3.2145e-006	0	
-4.66935e-006	-3.56841e-006	0	
-4.94219e-006	-3.99109e-006	0	
-5.01372e-006	-4.24794e-006	0	
-5.11009e-006	-4.43916e-006	0	
-5.19997e-006	-4.61611e-006	0	
-5.22674e-006	-4.77664e-006	0	
-5.23994e-006	-4.92873e-006	0	
-5.24394e-006	-5.06539e-006	0	
-5.234e-006	-5.19204e-006	0	
-5.21592e-006	-5.31183e-006	0	
-5.19189e-006	-5.42391e-006	0	
-5.16152e-006	-5.52987e-006	0	
-5.12675e-006	-5.63113e-006	0	
-5.08916e-006	-5.72813e-006	0	
-5.0497e-006	-5.82159e-006	0	
-5.00957e-006	-5.91245e-006	0	
-4.9704e-006	-6.00163e-006	0	
-4.93417e-006	-6.08994e-006	0	
-4.90317e-006	-6.17788e-006	0	
-4.87972e-006	-6.2654e-006	0	
-4.86557e-006	-6.35182e-006	0	
-4.86128e-006	-6.43596e-006	0	
-4.86594e-006	-6.51648e-006	0	
-4.87728e-006	-6.59219e-006	0	
-4.89215e-006	-6.66226e-006	0	
-4.90723e-006	-6.72628e-006	0	
-4.9197e-006	-6.78419e-006	0	
-4.92759e-006	-6.83635e-006	0	
-4.92971e-006	-6.88342e-006	0	
-4.92532e-006	-6.92629e-006	0	
-4.91378e-006	-6.96579e-006	0	
-4.89426e-006	-7.00255e-006	0	
-4.8662e-006	-7.03703e-006	0	
-4.82813e-006	-7.07037e-006	0	
-4.77894e-006	-7.10306e-006	0	
-4.71926e-006	-7.12801e-006	0	
-4.64077e-006	-7.13964e-006	0	
-4.55332e-006	-7.15017e-006	0	
-4.45747e-006	-7.16054e-006	0	
-4.35405e-006	-7.17315e-006	0	
-4.24196e-006	-7.19137e-006	0	
-4.12032e-006	-7.21441e-006	0	
-3.99148e-006	-7.24065e-006	0	
-3.85583e-006	-7.26751e-006	0	
-3.7141e-006	-7.29702e-006	0	
-3.56711e-006	-7.32872e-006	0	
-3.41386e-006	-7.36016e-006	0	
-3.25425e-006	-7.39296e-006	0	
-3.09105e-006	-7.4261e-006	0	
-2.92242e-006	-7.45819e-006	0	
-2.74861e-006	-7.49109e-006	0	
-2.57211e-006	-7.52389e-006	0	
-2.39126e-006	-7.55605e-006	0	
-2.20616e-006	-7.58779e-006	0	
-2.01746e-006	-7.61845e-006	0	
-1.82571e-006	-7.6486e-006	0	
-1.63162e-006	-7.67606e-006	0	
-1.43279e-006	-7.70236e-006	0	
-1.23072e-006	-7.72844e-006	0	
-1.02752e-006	-7.75173e-006	0	
-8.20577e-007	-7.77316e-006	0	
-6.08747e-007	-7.79304e-006	0	
-3.94248e-007	-7.81109e-006	0	
-1.77964e-007	-7.8268e-006	0	
4.16755e-008	-7.84054e-006	0	
2.65345e-007	-7.85195e-006	0	
4.93013e-007	-7.86209e-006	0	
7.23738e-007	-7.87002e-006	0	
9.57898e-007	-7.87662e-006	0	
1.19542e-006	-7.88094e-006	0	
1.43751e-006	-7.88341e-006	0	
1.68233e-006	-7.88633e-006	0	
1.9296e-006	-7.88857e-006	0	
2.17901e-006	-7.88869e-006	0	
2.43103e-006	-7.88888e-006	0	
2.68381e-006	-7.89075e-006	0	
2.93597e-006	-7.8933e-006	0	
-1.74314e-018	-3.22557e-018	0	
-2.74702e-007	-1.46105e-007	0	
-5.54635e-007	-2.97735e-007	0	
-8.36715e-007	-4.54891e-007	0	
-1.1153e-006	-6.16138e-007	0	
-1.38474e-006	-7.79396e-007	0	
-1.64071e-006	-9.4248e-007	0	
-1.88066e-006	-1.10339e-006	0	
-2.10379e-006	-1.26054e-006	0	
-2.31057e-006	-1.41309e-006	0	
-2.50187e-006	-1.56092e-006	0	
-2.67842e-006	-1.7042e-006	0	
-2.84113e-006	-1.84301e-006	0	
-2.99137e-006	-1.97741e-006	0	
-3.13098e-006	-2.10772e-006	0	
-3.26182e-006	-2.234e-006	0	
-3.38754e-006	-2.35546e-006	0	
-3.5099e-006	-2.47522e-006	0	
-3.61898e-006	-2.59372e-006	0	
-3.71812e-006	-2.70468e-006	0	
-3.80651e-006	-2.81143e-006	0	
-3.86118e-006	-2.92438e-006	0	
-3.94592e-006	-3.03048e-006	0	
-3.92788e-006	-3.04035e-006	0	
-4.13311e-006	-3.23056e-006	0	
-4.96268e-006	-4.27925e-006	0	
-4.95729e-006	-4.32397e-006	0	
-5.03819e-006	-4.44024e-006	0	
-5.16568e-006	-4.69564e-006	0	
-5.163e-006	-4.87479e-006	0	
-5.1822e-006	-5.01642e-006	0	
-5.19559e-006	-5.14734e-006	0	
-5.1826e-006	-5.27302e-006	0	
-5.16875e-006	-5.39293e-006	0	
-5.1488e-006	-5.50284e-006	0	
-5.11962e-006	-5.60733e-006	0	
-5.08618e-006	-5.70779e-006	0	
-5.05004e-006	-5.8032e-006	0	
-5.01088e-006	-5.89467e-006	0	
-4.96998e-006	-5.98356e-006	0	
-4.92896e-006	-6.07097e-006	0	
-4.88993e-006	-6.15816e-006	0	
-4.85584e-006	-6.24608e-006	0	
-4.83e-006	-6.33487e-006	0	