# vtk DataFile Version 4.1
vtk output
ASCII
DATASET UNSTRUCTURED_GRID

POINTS	30401	float
0	0	0	
0	1	0	
0	2	0	
0	3	0	
0	4	0	
0	5	0	
0	6	0	
0	7	0	
0	8	0	
0	9	0	
0	10	0	
0	11	0	
0	12	0	
0	13	0	
0	14	0	
0	15	0	
0	16	0	
0	17	0	
0	18	0	
0	19	0	
0	20	0	
0	21	0	
0	22	0	
0	23	0	
0	24	0	
0	25	0	
0	26	0	
0	27	0	
0	28	0	
0	29	0	
0	30	0	
0	31	0	
0	32	0	
0	33	0	
0	34	0	
0	35	0	
0	36	0	
0	37	0	
0	38	0	
0	39	0	
0	40	0	
0	41	0	
0	42	0	
0	43	0	
0	44	0	
0	45	0	
0	46	0	
0	47	0	
0	48	0	
0	49	0	
0	50	0	
0	51	0	
0	52	0	
0	53	0	
0	54	0	
0	55	0	
0	56	0	
0	57	0	
0	58	0	
0	59	0	
0	60	0	
0	61	0	
0	62	0	
0	63	0	
0	64	0	
0	65	0	
0	66	0	
0	67	0	
0	68	0	
0	69	0	
0	70	0	
0	71	0	
0	72	0	
0	73	0	
0	74	0	
0	75	0	
0	76	0	
0	77	0	
0	78	0	
0	79	0	
0	80	0	
0	81	0	
0	82	0	
0	83	0	
0	84	0	
0	85	0	
0	86	0	
0	87	0	
0	88	0	
0	89	0	
0	90	0	
0	91	0	
0	92	0	
0	93	0	
0	94	0	
0	95	0	
0	96	0	
0	97	0	
0	98	0	
0	99	0	
0	100	0	
1	0	0	
1	1	0	
1	2	0	
1	3	0	
1	4	0	
1	5	0	
1	6	0	
1	7	0	
1	8	0	
1	9	0	
1	10	0	
1	11	0	
1	12	0	
1	13	0	
1	14	0	
1	15	0	
1	16	0	
1	17	0	
1	18	0	
1	19	0	
1	20	0	
1	21	0	
1	22	0	
1	23	0	
1	24	0	
1	25	0	
1	26	0	
1	27	0	
1	28	0	
1	29	0	
1	30	0	
1	31	0	
1	32	0	
1	33	0	
1	34	0	
1	35	0	
1	36	0	
1	37	0	
1	38	0	
1	39	0	
1	40	0	
1	41	0	
1	42	0	
1	43	0	
1	44	0	
1	45	0	
1	46	0	
1	47	0	
1	48	0	
1	49	0	
1	50	0	
1	51	0	
1	52	0	
1	53	0	
1	54	0	
1	55	0	
1	56	0	
1	57	0	
1	58	0	
1	59	0	
1	60	0	
1	61	0	
1	62	0	
1	63	0	
1	64	0	
1	65	0	
1	66	0	
1	67	0	
1	68	0	
1	69	0	
1	70	0	
1	71	0	
1	72	0	
1	73	0	
1	74	0	
1	75	0	
1	76	0	
1	77	0	
1	78	0	
1	79	0	
1	80	0	
1	81	0	
1	82	0	
1	83	0	
1	84	0	
1	85	0	
1	86	0	
1	87	0	
1	88	0	
1	89	0	
1	90	0	
1	91	0	
1	92	0	
1	93	0	
1	94	0	
1	95	0	
1	96	0	
1	97	0	
1	98	0	
1	99	0	
1	100	0	
2	0	0	
2	1	0	
2	2	0	
2	3	0	
2	4	0	
2	5	0	
2	6	0	
2	7	0	
2	8	0	
2	9	0	
2	10	0	
2	11	0	
2	12	0	
2	13	0	
2	14	0	
2	15	0	
2	16	0	
2	17	0	
2	18	0	
2	19	0	
2	20	0	
2	21	0	
2	22	0	
2	23	0	
2	24	0	
2	25	0	
2	26	0	
2	27	0	
2	28	0	
2	29	0	
2	30	0	
2	31	0	
2	32	0	
2	33	0	
2	34	0	
2	35	0	
2	36	0	
2	37	0	
2	38	0	
2	39	0	
2	40	0	
2	41	0	
2	42	0	
2	43	0	
2	44	0	
2	45	0	
2	46	0	
2	47	0	
2	48	0	
2	49	0	
2	50	0	
2	51	0	
2	52	0	
2	53	0	
2	54	0	
2	55	0	
2	56	0	
2	57	0	
2	58	0	
2	59	0	
2	60	0	
2	61	0	
2	62	0	
2	63	0	
2	64	0	
2	65	0	
2	66	0	
2	67	0	
2	68	0	
2	69	0	
2	70	0	
2	71	0	
2	72	0	
2	73	0	
2	74	0	
2	75	0	
2	76	0	
2	77	0	
2	78	0	
2	79	0	
2	80	0	
2	81	0	
2	82	0	
2	83	0	
2	84	0	
2	85	0	
2	86	0	
2	87	0	
2	88	0	
2	89	0	
2	90	0	
2	91	0	
2	92	0	
2	93	0	
2	94	0	
2	95	0	
2	96	0	
2	97	0	
2	98	0	
2	99	0	
2	100	0	
3	0	0	
3	1	0	
3	2	0	
3	3	0	
3	4	0	
3	5	0	
3	6	0	
3	7	0	
3	8	0	
3	9	0	
3	10	0	
3	11	0	
3	12	0	
3	13	0	
3	14	0	
3	15	0	
3	16	0	
3	17	0	
3	18	0	
3	19	0	
3	20	0	
3	21	0	
3	22	0	
3	23	0	
3	24	0	
3	25	0	
3	26	0	
3	27	0	
3	28	0	
3	29	0	
3	30	0	
3	31	0	
3	32	0	
3	33	0	
3	34	0	
3	35	0	
3	36	0	
3	37	0	
3	38	0	
3	39	0	
3	40	0	
3	41	0	
3	42	0	
3	43	0	
3	44	0	
3	45	0	
3	46	0	
3	47	0	
3	48	0	
3	49	0	
3	50	0	
3	51	0	
3	52	0	
3	53	0	
3	54	0	
3	55	0	
3	56	0	
3	57	0	
3	58	0	
3	59	0	
3	60	0	
3	61	0	
3	62	0	
3	63	0	
3	64	0	
3	65	0	
3	66	0	
3	67	0	
3	68	0	
3	69	0	
3	70	0	
3	71	0	
3	72	0	
3	73	0	
3	74	0	
3	75	0	
3	76	0	
3	77	0	
3	78	0	
3	79	0	
3	80	0	
3	81	0	
3	82	0	
3	83	0	
3	84	0	
3	85	0	
3	86	0	
3	87	0	
3	88	0	
3	89	0	
3	90	0	
3	91	0	
3	92	0	
3	93	0	
3	94	0	
3	95	0	
3	96	0	
3	97	0	
3	98	0	
3	99	0	
3	100	0	
4	0	0	
4	1	0	
4	2	0	
4	3	0	
4	4	0	
4	5	0	
4	6	0	
4	7	0	
4	8	0	
4	9	0	
4	10	0	
4	11	0	
4	12	0	
4	13	0	
4	14	0	
4	15	0	
4	16	0	
4	17	0	
4	18	0	
4	19	0	
4	20	0	
4	21	0	
4	22	0	
4	23	0	
4	24	0	
4	25	0	
4	26	0	
4	27	0	
4	28	0	
4	29	0	
4	30	0	
4	31	0	
4	32	0	
4	33	0	
4	34	0	
4	35	0	
4	36	0	
4	37	0	
4	38	0	
4	39	0	
4	40	0	
4	41	0	
4	42	0	
4	43	0	
4	44	0	
4	45	0	
4	46	0	
4	47	0	
4	48	0	
4	49	0	
4	50	0	
4	51	0	
4	52	0	
4	53	0	
4	54	0	
4	55	0	
4	56	0	
4	57	0	
4	58	0	
4	59	0	
4	60	0	
4	61	0	
4	62	0	
4	63	0	
4	64	0	
4	65	0	
4	66	0	
4	67	0	
4	68	0	
4	69	0	
4	70	0	
4	71	0	
4	72	0	
4	73	0	
4	74	0	
4	75	0	
4	76	0	
4	77	0	
4	78	0	
4	79	0	
4	80	0	
4	81	0	
4	82	0	
4	83	0	
4	84	0	
4	85	0	
4	86	0	
4	87	0	
4	88	0	
4	89	0	
4	90	0	
4	91	0	
4	92	0	
4	93	0	
4	94	0	
4	95	0	
4	96	0	
4	97	0	
4	98	0	
4	99	0	
4	100	0	
5	0	0	
5	1	0	
5	2	0	
5	3	0	
5	4	0	
5	5	0	
5	6	0	
5	7	0	
5	8	0	
5	9	0	
5	10	0	
5	11	0	
5	12	0	
5	13	0	
5	14	0	
5	15	0	
5	16	0	
5	17	0	
5	18	0	
5	19	0	
5	20	0	
5	21	0	
5	22	0	
5	23	0	
5	24	0	
5	25	0	
5	26	0	
5	27	0	
5	28	0	
5	29	0	
5	30	0	
5	31	0	
5	32	0	
5	33	0	
5	34	0	
5	35	0	
5	36	0	
5	37	0	
5	38	0	
5	39	0	
5	40	0	
5	41	0	
5	42	0	
5	43	0	
5	44	0	
5	45	0	
5	46	0	
5	47	0	
5	48	0	
5	49	0	
5	50	0	
5	51	0	
5	52	0	
5	53	0	
5	54	0	
5	55	0	
5	56	0	
5	57	0	
5	58	0	
5	59	0	
5	60	0	
5	61	0	
5	62	0	
5	63	0	
5	64	0	
5	65	0	
5	66	0	
5	67	0	
5	68	0	
5	69	0	
5	70	0	
5	71	0	
5	72	0	
5	73	0	
5	74	0	
5	75	0	
5	76	0	
5	77	0	
5	78	0	
5	79	0	
5	80	0	
5	81	0	
5	82	0	
5	83	0	
5	84	0	
5	85	0	
5	86	0	
5	87	0	
5	88	0	
5	89	0	
5	90	0	
5	91	0	
5	92	0	
5	93	0	
5	94	0	
5	95	0	
5	96	0	
5	97	0	
5	98	0	
5	99	0	
5	100	0	
6	0	0	
6	1	0	
6	2	0	
6	3	0	
6	4	0	
6	5	0	
6	6	0	
6	7	0	
6	8	0	
6	9	0	
6	10	0	
6	11	0	
6	12	0	
6	13	0	
6	14	0	
6	15	0	
6	16	0	
6	17	0	
6	18	0	
6	19	0	
6	20	0	
6	21	0	
6	22	0	
6	23	0	
6	24	0	
6	25	0	
6	26	0	
6	27	0	
6	28	0	
6	29	0	
6	30	0	
6	31	0	
6	32	0	
6	33	0	
6	34	0	
6	35	0	
6	36	0	
6	37	0	
6	38	0	
6	39	0	
6	40	0	
6	41	0	
6	42	0	
6	43	0	
6	44	0	
6	45	0	
6	46	0	
6	47	0	
6	48	0	
6	49	0	
6	50	0	
6	51	0	
6	52	0	
6	53	0	
6	54	0	
6	55	0	
6	56	0	
6	57	0	
6	58	0	
6	59	0	
6	60	0	
6	61	0	
6	62	0	
6	63	0	
6	64	0	
6	65	0	
6	66	0	
6	67	0	
6	68	0	
6	69	0	
6	70	0	
6	71	0	
6	72	0	
6	73	0	
6	74	0	
6	75	0	
6	76	0	
6	77	0	
6	78	0	
6	79	0	
6	80	0	
6	81	0	
6	82	0	
6	83	0	
6	84	0	
6	85	0	
6	86	0	
6	87	0	
6	88	0	
6	89	0	
6	90	0	
6	91	0	
6	92	0	
6	93	0	
6	94	0	
6	95	0	
6	96	0	
6	97	0	
6	98	0	
6	99	0	
6	100	0	
7	0	0	
7	1	0	
7	2	0	
7	3	0	
7	4	0	
7	5	0	
7	6	0	
7	7	0	
7	8	0	
7	9	0	
7	10	0	
7	11	0	
7	12	0	
7	13	0	
7	14	0	
7	15	0	
7	16	0	
7	17	0	
7	18	0	
7	19	0	
7	20	0	
7	21	0	
7	22	0	
7	23	0	
7	24	0	
7	25	0	
7	26	0	
7	27	0	
7	28	0	
7	29	0	
7	30	0	
7	31	0	
7	32	0	
7	33	0	
7	34	0	
7	35	0	
7	36	0	
7	37	0	
7	38	0	
7	39	0	
7	40	0	
7	41	0	
7	42	0	
7	43	0	
7	44	0	
7	45	0	
7	46	0	
7	47	0	
7	48	0	
7	49	0	
7	50	0	
7	51	0	
7	52	0	
7	53	0	
7	54	0	
7	55	0	
7	56	0	
7	57	0	
7	58	0	
7	59	0	
7	60	0	
7	61	0	
7	62	0	
7	63	0	
7	64	0	
7	65	0	
7	66	0	
7	67	0	
7	68	0	
7	69	0	
7	70	0	
7	71	0	
7	72	0	
7	73	0	
7	74	0	
7	75	0	
7	76	0	
7	77	0	
7	78	0	
7	79	0	
7	80	0	
7	81	0	
7	82	0	
7	83	0	
7	84	0	
7	85	0	
7	86	0	
7	87	0	
7	88	0	
7	89	0	
7	90	0	
7	91	0	
7	92	0	
7	93	0	
7	94	0	
7	95	0	
7	96	0	
7	97	0	
7	98	0	
7	99	0	
7	100	0	
8	0	0	
8	1	0	
8	2	0	
8	3	0	
8	4	0	
8	5	0	
8	6	0	
8	7	0	
8	8	0	
8	9	0	
8	10	0	
8	11	0	
8	12	0	
8	13	0	
8	14	0	
8	15	0	
8	16	0	
8	17	0	
8	18	0	
8	19	0	
8	20	0	
8	21	0	
8	22	0	
8	23	0	
8	24	0	
8	25	0	
8	26	0	
8	27	0	
8	28	0	
8	29	0	
8	30	0	
8	31	0	
8	32	0	
8	33	0	
8	34	0	
8	35	0	
8	36	0	
8	37	0	
8	38	0	
8	39	0	
8	40	0	
8	41	0	
8	42	0	
8	43	0	
8	44	0	
8	45	0	
8	46	0	
8	47	0	
8	48	0	
8	49	0	
8	50	0	
8	51	0	
8	52	0	
8	53	0	
8	54	0	
8	55	0	
8	56	0	
8	57	0	
8	58	0	
8	59	0	
8	60	0	
8	61	0	
8	62	0	
8	63	0	
8	64	0	
8	65	0	
8	66	0	
8	67	0	
8	68	0	
8	69	0	
8	70	0	
8	71	0	
8	72	0	
8	73	0	
8	74	0	
8	75	0	
8	76	0	
8	77	0	
8	78	0	
8	79	0	
8	80	0	
8	81	0	
8	82	0	
8	83	0	
8	84	0	
8	85	0	
8	86	0	
8	87	0	
8	88	0	
8	89	0	
8	90	0	
8	91	0	
8	92	0	
8	93	0	
8	94	0	
8	95	0	
8	96	0	
8	97	0	
8	98	0	
8	99	0	
8	100	0	
9	0	0	
9	1	0	
9	2	0	
9	3	0	
9	4	0	
9	5	0	
9	6	0	
9	7	0	
9	8	0	
9	9	0	
9	10	0	
9	11	0	
9	12	0	
9	13	0	
9	14	0	
9	15	0	
9	16	0	
9	17	0	
9	18	0	
9	19	0	
9	20	0	
9	21	0	
9	22	0	
9	23	0	
9	24	0	
9	25	0	
9	26	0	
9	27	0	
9	28	0	
9	29	0	
9	30	0	
9	31	0	
9	32	0	
9	33	0	
9	34	0	
9	35	0	
9	36	0	
9	37	0	
9	38	0	
9	39	0	
9	40	0	
9	41	0	
9	42	0	
9	43	0	
9	44	0	
9	45	0	
9	46	0	
9	47	0	
9	48	0	
9	49	0	
9	50	0	
9	51	0	
9	52	0	
9	53	0	
9	54	0	
9	55	0	
9	56	0	
9	57	0	
9	58	0	
9	59	0	
9	60	0	
9	61	0	
9	62	0	
9	63	0	
9	64	0	
9	65	0	
9	66	0	
9	67	0	
9	68	0	
9	69	0	
9	70	0	
9	71	0	
9	72	0	
9	73	0	
9	74	0	
9	75	0	
9	76	0	
9	77	0	
9	78	0	
9	79	0	
9	80	0	
9	81	0	
9	82	0	
9	83	0	
9	84	0	
9	85	0	
9	86	0	
9	87	0	
9	88	0	
9	89	0	
9	90	0	
9	91	0	
9	92	0	
9	93	0	
9	94	0	
9	95	0	
9	96	0	
9	97	0	
9	98	0	
9	99	0	
9	100	0	
10	0	0	
10	1	0	
10	2	0	
10	3	0	
10	4	0	
10	5	0	
10	6	0	
10	7	0	
10	8	0	
10	9	0	
10	10	0	
10	11	0	
10	12	0	
10	13	0	
10	14	0	
10	15	0	
10	16	0	
10	17	0	
10	18	0	
10	19	0	
10	20	0	
10	21	0	
10	22	0	
10	23	0	
10	24	0	
10	25	0	
10	26	0	
10	27	0	
10	28	0	
10	29	0	
10	30	0	
10	31	0	
10	32	0	
10	33	0	
10	34	0	
10	35	0	
10	36	0	
10	37	0	
10	38	0	
10	39	0	
10	40	0	
10	41	0	
10	42	0	
10	43	0	
10	44	0	
10	45	0	
10	46	0	
10	47	0	
10	48	0	
10	49	0	
10	50	0	
10	51	0	
10	52	0	
10	53	0	
10	54	0	
10	55	0	
10	56	0	
10	57	0	
10	58	0	
10	59	0	
10	60	0	
10	61	0	
10	62	0	
10	63	0	
10	64	0	
10	65	0	
10	66	0	
10	67	0	
10	68	0	
10	69	0	
10	70	0	
10	71	0	
10	72	0	
10	73	0	
10	74	0	
10	75	0	
10	76	0	
10	77	0	
10	78	0	
10	79	0	
10	80	0	
10	81	0	
10	82	0	
10	83	0	
10	84	0	
10	85	0	
10	86	0	
10	87	0	
10	88	0	
10	89	0	
10	90	0	
10	91	0	
10	92	0	
10	93	0	
10	94	0	
10	95	0	
10	96	0	
10	97	0	
10	98	0	
10	99	0	
10	100	0	
11	0	0	
11	1	0	
11	2	0	
11	3	0	
11	4	0	
11	5	0	
11	6	0	
11	7	0	
11	8	0	
11	9	0	
11	10	0	
11	11	0	
11	12	0	
11	13	0	
11	14	0	
11	15	0	
11	16	0	
11	17	0	
11	18	0	
11	19	0	
11	20	0	
11	21	0	
11	22	0	
11	23	0	
11	24	0	
11	25	0	
11	26	0	
11	27	0	
11	28	0	
11	29	0	
11	30	0	
11	31	0	
11	32	0	
11	33	0	
11	34	0	
11	35	0	
11	36	0	
11	37	0	
11	38	0	
11	39	0	
11	40	0	
11	41	0	
11	42	0	
11	43	0	
11	44	0	
11	45	0	
11	46	0	
11	47	0	
11	48	0	
11	49	0	
11	50	0	
11	51	0	
11	52	0	
11	53	0	
11	54	0	
11	55	0	
11	56	0	
11	57	0	
11	58	0	
11	59	0	
11	60	0	
11	61	0	
11	62	0	
11	63	0	
11	64	0	
11	65	0	
11	66	0	
11	67	0	
11	68	0	
11	69	0	
11	70	0	
11	71	0	
11	72	0	
11	73	0	
11	74	0	
11	75	0	
11	76	0	
11	77	0	
11	78	0	
11	79	0	
11	80	0	
11	81	0	
11	82	0	
11	83	0	
11	84	0	
11	85	0	
11	86	0	
11	87	0	
11	88	0	
11	89	0	
11	90	0	
11	91	0	
11	92	0	
11	93	0	
11	94	0	
11	95	0	
11	96	0	
11	97	0	
11	98	0	
11	99	0	
11	100	0	
12	0	0	
12	1	0	
12	2	0	
12	3	0	
12	4	0	
12	5	0	
12	6	0	
12	7	0	
12	8	0	
12	9	0	
12	10	0	
12	11	0	
12	12	0	
12	13	0	
[...]
POINT_DATA	30401
VECTORS d float
-9.11118e-018	-1.64549e-017	0	
-4.90863e-007	-5.03148e-007	0	
-8.52823e-007	-7.97469e-007	0	
-1.17478e-006	-1.02419e-006	0	
-1.46662e-006	-1.20796e-006	0	
-1.73548e-006	-1.35499e-006	0	
-1.98036e-006	-1.46866e-006	0	
-2.19708e-006	-1.54605e-006	0	
-2.37243e-006	-1.58357e-006	0	
-2.49154e-006	-1.59237e-006	0	
-2.64241e-006	-1.63375e-006	0	
-2.78541e-006	-1.67694e-006	0	
-2.89828e-006	-1.71425e-006	0	
-3.16185e-006	-2.06898e-006	0	
-3.36891e-006	-2.47493e-006	0	
-3.69548e-006	-3.11242e-006	0	
-3.97465e-006	-3.75116e-006	0	
-4.2928e-006	-4.45641e-006	0	
-4.65941e-006	-5.12531e-006	0	
-5.01651e-006	-5.73143e-006	0	
-5.36568e-006	-6.30129e-006	0	
-5.69715e-006	-6.8191e-006	0	
-5.97144e-006	-7.27691e-006	0	
-6.11537e-006	-7.69841e-006	0	
-6.14047e-006	-8.15617e-006	0	
-6.20282e-006	-8.67354e-006	0	
-6.43758e-006	-9.17063e-006	0	
-6.87269e-006	-9.56912e-006	0	
-7.51423e-006	-9.79343e-006	0	
-8.29294e-006	-9.75851e-006	0	
-8.97017e-006	-9.5587e-006	0	
-9.36282e-006	-9.39447e-006	0	
-9.5437e-006	-9.29366e-006	0	
-9.61101e-006	-9.22331e-006	0	
-9.61403e-006	-9.16369e-006	0	
-9.57473e-006	-9.1066e-006	0	
-9.50304e-006	-9.0608e-006	0	
-9.40574e-006	-9.02996e-006	0	
-9.29044e-006	-9.00966e-006	0	
-9.163e-006	-8.99566e-006	0	
-9.02721e-006	-8.98484e-006	0	
-8.88513e-006	-8.97567e-006	0	
-8.73707e-006	-8.96599e-006	0	
-8.58024e-006	-8.95073e-006	0	
-8.41401e-006	-8.92754e-006	0	
-8.24336e-006	-8.90268e-006	0	
-8.07048e-006	-8.87933e-006	0	
-7.89624e-006	-8.86064e-006	0	
-7.72007e-006	-8.84688e-006	0	
-7.5418e-006	-8.83637e-006	0	
-7.36189e-006	-8.82775e-006	0	
-7.18075e-006	-8.82139e-006	0	
-6.99831e-006	-8.81724e-006	0	
-6.81458e-006	-8.81487e-006	0	
-6.63002e-006	-8.81336e-006	0	
-6.44496e-006	-8.81242e-006	0	
-6.25954e-006	-8.81185e-006	0	
-6.07389e-006	-8.81137e-006	0	
-5.88808e-006	-8.8109e-006	0	
-5.70215e-006	-8.81044e-006	0	
-5.5161e-006	-8.81e-006	0	
-5.32995e-006	-8.80957e-006	0	
-5.14373e-006	-8.80919e-006	0	
-4.95745e-006	-8.80886e-006	0	
-4.77112e-006	-8.8086e-006	0	
-4.58474e-006	-8.80836e-006	0	
-4.39829e-006	-8.80812e-006	0	
-4.21176e-006	-8.80788e-006	0	
-4.02516e-006	-8.80762e-006	0	
-3.83836e-006	-8.80731e-006	0	
-3.65126e-006	-8.80682e-006	0	
-3.46383e-006	-8.80578e-006	0	
-3.27483e-006	-8.80268e-006	0	
-3.08404e-006	-8.79728e-006	0	
-2.89291e-006	-8.78929e-006	0	
-2.69939e-006	-8.77839e-006	0	
-2.50586e-006	-8.76657e-006	0	
-2.31206e-006	-8.75272e-006	0	
-2.11629e-006	-8.73715e-006	0	
-1.92067e-006	-8.7209e-006	0	
-1.72568e-006	-8.70312e-006	0	
-1.52756e-006	-8.68489e-006	0	
-1.3298e-006	-8.66691e-006	0	
-1.13145e-006	-8.64794e-006	0	
-9.30184e-007	-8.62827e-006	0	
-7.28903e-007	-8.60868e-006	0	
-5.27485e-007	-8.58894e-006	0	
-3.23834e-007	-8.56956e-006	0	
-1.19888e-007	-8.5517e-006	0	
8.52235e-008	-8.53387e-006	0	
2.92272e-007	-8.51681e-006	0	
4.99691e-007	-8.50121e-006	0	
7.06699e-007	-8.48677e-006	0	
9.14704e-007	-8.47459e-006	0	
1.12336e-006	-8.46371e-006	0	
1.33136e-006	-8.45374e-006	0	
1.54006e-006	-8.44564e-006	0	
1.74791e-006	-8.43943e-006	0	
1.95483e-006	-8.43492e-006	0	
2.1629e-006	-8.43275e-006	0	
2.36997e-006	-8.43191e-006	0	
-2.74379e-018	-5.4822e-018	0	
-3.74915e-007	-2.74839e-007	0	
-7.45878e-007	-5.38145e-007	0	
-1.08556e-006	-7.73712e-007	0	
-1.393e-006	-9.70559e-007	0	
-1.67492e-006	-1.13673e-006	0	
-1.93207e-006	-1.2761e-006	0	
-2.1612e-006	-1.39204e-006	0	
-2.35009e-006	-1.49387e-006	0	
-2.51317e-006	-1.61354e-006	0	
-2.71221e-006	-1.74119e-006	0	
-2.85705e-006	-1.79004e-006	0	
-2.93732e-006	-1.79821e-006	0	
-3.06679e-006	-1.84974e-006	0	
-3.14828e-006	-1.87254e-006	0	
-3.45636e-006	-2.37933e-006	0	
-3.67727e-006	-3.23487e-006	0	
-3.9625e-006	-3.965e-006	0	
-4.35621e-006	-4.69483e-006	0	
-4.74614e-006	-5.34799e-006	0	
-5.12354e-006	-5.96625e-006	0	
-5.47565e-006	-6.53328e-006	0	
-5.7714e-006	-7.0794e-006	0	
-5.9211e-006	-7.59825e-006	0	
-5.92726e-006	-8.09215e-006	0	
-5.99712e-006	-8.54665e-006	0	
-6.27515e-006	-8.90515e-006	0	
-6.76405e-006	-9.14112e-006	0	
-7.4655e-006	-9.26167e-006	0	
-8.30661e-006	-9.28809e-006	0	
-9.00263e-006	-9.27814e-006	0	
-9.3906e-006	-9.26519e-006	0	
-9.56662e-006	-9.24687e-006	0	
-9.6309e-006	-9.22482e-006	0	
-9.6323e-006	-9.2011e-006	0	
-9.5906e-006	-9.17611e-006	0	
-9.51459e-006	-9.15531e-006	0	
-9.41339e-006	-9.14186e-006	0	
-9.29565e-006	-9.13322e-006	0	
-9.1669e-006	-9.12712e-006	0	
-9.03047e-006	-9.12198e-006	0	
-8.88817e-006	-9.117e-006	0	
-8.74069e-006	-9.11132e-006	0	
-8.58616e-006	-9.10283e-006	0	
-8.4225e-006	-9.08884e-006	0	
-8.25241e-006	-9.07082e-006	0	
-8.07867e-006	-9.05212e-006	0	
-7.90252e-006	-9.03616e-006	0	
-7.72476e-006	-9.02442e-006	0	
-7.54547e-006	-9.0158e-006	0	
-7.36469e-006	-9.00893e-006	0	
-7.18262e-006	-9.004e-006	0	
-6.99942e-006	-9.00102e-006	0	
-6.81524e-006	-8.99941e-006	0	
-6.63043e-006	-8.9984e-006	0	
-6.44521e-006	-8.99778e-006	0	
-6.25973e-006	-8.99741e-006	0	
-6.07406e-006	-8.99707e-006	0	
-5.88826e-006	-8.99672e-006	0	
-5.70232e-006	-8.99637e-006	0	
-5.51627e-006	-8.99602e-006	0	
-5.33012e-006	-8.99567e-006	0	
-5.14388e-006	-8.99534e-006	0	
-4.95757e-006	-8.99505e-006	0	
-4.77123e-006	-8.99481e-006	0	
-4.58484e-006	-8.99459e-006	0	
-4.39839e-006	-8.99438e-006	0	
-4.21184e-006	-8.99415e-006	0	
-4.02523e-006	-8.99394e-006	0	
-3.83847e-006	-8.99371e-006	0	
-3.65148e-006	-8.99341e-006	0	
-3.46426e-006	-8.99285e-006	0	
-3.27603e-006	-8.99118e-006	0	
-3.08664e-006	-8.98756e-006	0	
-2.89647e-006	-8.98127e-006	0	
-2.70433e-006	-8.9721e-006	0	
-2.51134e-006	-8.9608e-006	0	
-2.31856e-006	-8.94821e-006	0	
-2.12351e-006	-8.93384e-006	0	
-1.92813e-006	-8.91822e-006	0	
-1.73286e-006	-8.90113e-006	0	
-1.53507e-006	-8.88388e-006	0	
-1.33737e-006	-8.86613e-006	0	
-1.1392e-006	-8.84827e-006	0	
-9.38846e-007	-8.82957e-006	0	
-7.37663e-007	-8.81071e-006	0	
-5.35751e-007	-8.79189e-006	0	
-3.31949e-007	-8.77392e-006	0	
-1.27328e-007	-8.75692e-006	0	
7.81115e-008	-8.74014e-006	0	
2.85028e-007	-8.72383e-006	0	
4.92706e-007	-8.70905e-006	0	
7.00735e-007	-8.69484e-006	0	
9.0954e-007	-8.6823e-006	0	
1.11837e-006	-8.67218e-006	0	
1.32707e-006	-8.66273e-006	0	
1.53656e-006	-8.65419e-006	0	
1.74521e-006	-8.64783e-006	0	
1.95284e-006	-8.64315e-006	0	
2.16136e-006	-8.64013e-006	0	
2.36861e-006	-8.63872e-006	0	
-1.78795e-018	-4.19171e-018	0	
-3.18468e-007	-1.97365e-007	0	
-6.69083e-007	-4.10272e-007	0	
-1.00656e-006	-6.19439e-007	0	
-1.31976e-006	-8.12257e-007	0	
-1.60838e-006	-9.8689e-007	0	
-1.87138e-006	-1.14466e-006	0	
-2.10554e-006	-1.28903e-006	0	
-2.30716e-006	-1.42137e-006	0	
-2.49075e-006	-1.54103e-006	0	
-2.6784e-006	-1.6523e-006	0	
-2.83708e-006	-1.7561e-006	0	
-2.97152e-006	-1.86393e-006	0	
-3.12138e-006	-1.95367e-006	0	
-3.17536e-006	-1.96195e-006	0	
-3.28842e-006	-2.01681e-006	0	
-3.45545e-006	-2.13663e-006	0	
-3.52083e-006	-2.21915e-006	0	
-3.96065e-006	-3.73379e-006	0	
-4.35089e-006	-4.71867e-006	0	
-4.79646e-006	-5.56062e-006	0	
-5.19447e-006	-6.2531e-006	0	
-5.54157e-006	-6.91052e-006	0	
-5.72681e-006	-7.53325e-006	0	
-5.70763e-006	-8.11886e-006	0	
-5.77809e-006	-8.53523e-006	0	
-6.14826e-006	-8.79615e-006	0	
-6.66471e-006	-8.92117e-006	0	
-7.31666e-006	-8.99139e-006	0	
-8.12796e-006	-9.06773e-006	0	
-8.88046e-006	-9.15389e-006	0	
-9.34002e-006	-9.21985e-006	0	
-9.5582e-006	-9.24737e-006	0	
-9.63941e-006	-9.25715e-006	0	
-9.64086e-006	-9.259e-006	0	
-9.59681e-006	-9.25801e-006	0	
-9.51874e-006	-9.25724e-006	0	
-9.41637e-006	-9.25756e-006	0	
-9.29799e-006	-9.25845e-006	0	
-9.16891e-006	-9.25897e-006	0	
-9.03235e-006	-9.2586e-006	0	
-8.88982e-006	-9.25713e-006	0	
-8.74184e-006	-9.25438e-006	0	
-8.58762e-006	-9.24997e-006	0	
-8.42598e-006	-9.24318e-006	0	
-8.25758e-006	-9.23372e-006	0	
-8.08442e-006	-9.22294e-006	0	
-7.90746e-006	-9.21168e-006	0	
-7.72853e-006	-9.20245e-006	0	
-7.54824e-006	-9.19579e-006	0	
-7.36666e-006	-9.19085e-006	0	
-7.18389e-006	-9.18748e-006	0	
-7.00016e-006	-9.18545e-006	0	
-6.81568e-006	-9.18434e-006	0	
-6.63071e-006	-9.18366e-006	0	
-6.44539e-006	-9.18324e-006	0	
-6.25987e-006	-9.18297e-006	0	
-6.0742e-006	-9.18272e-006	0	
-5.88839e-006	-9.18246e-006	0	
-5.70246e-006	-9.1822e-006	0	
-5.51641e-006	-9.18192e-006	0	
-5.33026e-006	-9.18164e-006	0	
-5.14401e-006	-9.18136e-006	0	
-4.95769e-006	-9.18108e-006	0	
-4.77132e-006	-9.18084e-006	0	
-4.58491e-006	-9.1806e-006	0	
-4.39844e-006	-9.18036e-006	0	
-4.21187e-006	-9.18012e-006	0	
-4.0252e-006	-9.17988e-006	0	
-3.83839e-006	-9.17962e-006	0	
-3.65144e-006	-9.17932e-006	0	
-3.46428e-006	-9.17896e-006	0	
-3.27667e-006	-9.17812e-006	0	
-3.08823e-006	-9.17619e-006	0	
-2.89929e-006	-9.17201e-006	0	
-2.70856e-006	-9.16502e-006	0	
-2.51649e-006	-9.15577e-006	0	
-2.32388e-006	-9.14417e-006	0	
-2.12989e-006	-9.13126e-006	0	
-1.93509e-006	-9.11651e-006	0	
-1.73991e-006	-9.10141e-006	0	
-1.54318e-006	-9.08467e-006	0	
-1.34534e-006	-9.06762e-006	0	
-1.14671e-006	-9.04991e-006	0	
-9.47084e-007	-9.0323e-006	0	
-7.45953e-007	-9.01445e-006	0	
-5.43522e-007	-8.99733e-006	0	
-3.40073e-007	-8.97997e-006	0	
-1.35303e-007	-8.96318e-006	0	
7.07315e-008	-8.94687e-006	0	
2.77666e-007	-8.93137e-006	0	
4.85266e-007	-8.91697e-006	0	
6.93893e-007	-8.90373e-006	0	
9.03659e-007	-8.89152e-006	0	
1.11295e-006	-8.88111e-006	0	
1.32192e-006	-8.87147e-006	0	
1.5315e-006	-8.86299e-006	0	
1.74116e-006	-8.85645e-006	0	
1.9496e-006	-8.85145e-006	0	
2.15792e-006	-8.8479e-006	0	
2.366e-006	-8.84587e-006	0	
-1.76983e-018	-3.71989e-018	0	
-2.99347e-007	-1.68932e-007	0	
-6.22919e-007	-3.47972e-007	0	
-9.45927e-007	-5.32434e-007	0	
-1.2547e-006	-7.14429e-007	0	
-1.54284e-006	-8.88788e-007	0	
-1.80719e-006	-1.05381e-006	0	
-2.04524e-006	-1.20906e-006	0	
-2.25765e-006	-1.35291e-006	0	
-2.4528e-006	-1.48427e-006	0	
-2.63709e-006	-1.60801e-006	0	
-2.80395e-006	-1.72668e-006	0	
-2.95448e-006	-1.83707e-006	0	
-3.0986e-006	-1.94974e-006	0	
-3.21065e-006	-2.07296e-006	0	
-3.37747e-006	-2.21608e-006	0	
-3.47625e-006	-2.26571e-006	0	
-3.50996e-006	-2.27442e-006	0	
-3.58428e-006	-2.3195e-006	0	
-3.66307e-006	-2.40027e-006	0	
-4.26633e-006	-4.31958e-006	0	
-4.70971e-006	-5.62578e-006	0	
-5.1844e-006	-6.6558e-006	0	
-5.43294e-006	-7.60075e-006	0	
-5.40677e-006	-8.33771e-006	0	
-5.61933e-006	-8.64244e-006	0	
-6.07663e-006	-8.7133e-006	0	
-6.59327e-006	-8.72969e-006	0	
-7.13958e-006	-8.74714e-006	0	
-7.78425e-006	-8.81083e-006	0	
-8.57148e-006	-8.93428e-006	0	
-9.17315e-006	-9.08488e-006	0	
-9.50366e-006	-9.19827e-006	0	
-9.63234e-006	-9.27746e-006	0	
-9.64106e-006	-9.31207e-006	0	
-9.59549e-006	-9.33545e-006	0	
-9.51626e-006	-9.3551e-006	0	
-9.41452e-006	-9.37116e-006	0	
-9.29711e-006	-9.38382e-006	0	
-9.16889e-006	-9.39263e-006	0	
-9.03293e-006	-9.39844e-006	0	
-8.89052e-006	-9.40166e-006	0	
-8.74219e-006	-9.40291e-006	0	
-8.58759e-006	-9.40242e-006	0	
-8.42643e-006	-9.40009e-006	0	
-8.25911e-006	-9.39621e-006	0	
-8.08696e-006	-9.39162e-006	0	
-7.91042e-006	-9.38604e-006	0	
-7.73111e-006	-9.38084e-006	0	
-7.55004e-006	-9.37659e-006	0	
-7.36782e-006	-9.37348e-006	0	
-7.18463e-006	-9.37136e-006	0	
-7.00061e-006	-9.37009e-006	0	
-6.81597e-006	-9.36939e-006	0	
-6.63089e-006	-9.36899e-006	0	
-6.44553e-006	-9.36872e-006	0	
-6.25998e-006	-9.36853e-006	0	
-6.0743e-006	-9.36837e-006	0	
-5.8885e-006	-9.36819e-006	0	
-5.70257e-006	-9.368e-006	0	
-5.51653e-006	-9.36779e-006	0	
-5.33038e-006	-9.36757e-006	0	
-5.14414e-006	-9.36733e-006	0	
-4.95781e-006	-9.36709e-006	0	
-4.77141e-006	-9.36684e-006	0	
-4.58497e-006	-9.36659e-006	0	
-4.39846e-006	-9.36633e-006	0	
-4.21185e-006	-9.36606e-006	0	
-4.02511e-006	-9.36577e-006	0	
-3.83824e-006	-9.36546e-006	0	
-3.65124e-006	-9.36514e-006	0	
-3.4641e-006	-9.36477e-006	0	
-3.27668e-006	-9.36431e-006	0	
-3.08888e-006	-9.3634e-006	0	
-2.90061e-006	-9.36136e-006	0	
-2.71141e-006	-9.3569e-006	0	
-2.52049e-006	-9.34957e-006	0	
-2.32872e-006	-9.34036e-006	0	
-2.13554e-006	-9.32856e-006	0	
-1.94122e-006	-9.31581e-006	0	
-1.74675e-006	-9.30152e-006	0	
-1.55089e-006	-9.28669e-006	0	
-1.35345e-006	-9.27001e-006	0	
-1.15464e-006	-9.25381e-006	0	
-9.54962e-007	-9.23685e-006	0	
-7.53944e-007	-9.22013e-006	0	
-5.5172e-007	-9.20359e-006	0	
-3.48436e-007	-9.18724e-006	0	
-1.43883e-007	-9.1706e-006	0	
6.22504e-008	-9.1549e-006	0	
2.69909e-007	-9.13957e-006	0	
4.77682e-007	-9.12561e-006	0	
6.861e-007	-9.113e-006	0	
8.96315e-007	-9.10125e-006	0	
1.10657e-006	-9.09028e-006	0	
1.31579e-006	-9.0805e-006	0	
1.52563e-006	-9.07197e-006	0	
1.73599e-006	-9.06506e-006	0	
1.9449e-006	-9.05971e-006	0	
2.15325e-006	-9.05586e-006	0	
2.36189e-006	-9.05316e-006	0	
-1.77523e-018	-3.42765e-018	0	
-2.88949e-007	-1.54958e-007	0	
-5.93649e-007	-3.17021e-007	0	
-9.01141e-007	-4.85965e-007	0	
-1.20017e-006	-6.57691e-007	0	
-1.48338e-006	-8.27929e-007	0	
-1.74643e-006	-9.93689e-007	0	
-1.98717e-006	-1.15273e-006	0	
-2.20631e-006	-1.30317e-006	0	
-2.40759e-006	-1.44456e-006	0	
-2.5939e-006	-1.57893e-006	0	
-2.76452e-006	-1.70784e-006	0	
-2.92064e-006	-1.83139e-006	0	
-3.06366e-006	-1.9515e-006	0	
-3.19695e-006	-2.06586e-006	0	
-3.34304e-006	-2.17887e-006	0	
-3.45691e-006	-2.28275e-006	0	
-3.54523e-006	-2.38763e-006	0	
-3.64369e-006	-2.47153e-006	0	
-3.65634e-006	-2.4812e-006	0	
-3.7197e-006	-2.53335e-006	0	
-3.78896e-006	-2.62857e-006	0	
-4.46604e-006	-4.07472e-006	0	
-4.89418e-006	-7.05885e-006	0	
-5.08716e-006	-8.11058e-006	0	
-5.54174e-006	-8.22642e-006	0	
-6.06873e-006	-8.22831e-006	0	
-6.59586e-006	-8.22876e-006	0	
-7.12033e-006	-8.22891e-006	0	
-7.64008e-006	-8.24232e-006	0	
-8.24186e-006	-8.41098e-006	0	
-8.85469e-006	-8.66249e-006	0	
-9.33253e-006	-8.94845e-006	0	
-9.57931e-006	-9.21784e-006	0	
-9.62484e-006	-9.33749e-006	0	
-9.58308e-006	-9.405e-006	0	
-9.50594e-006	-9.45048e-006	0	
-9.40653e-006	-9.4853e-006	0	
-9.29166e-006	-9.51121e-006	0	
-9.16544e-006	-9.52928e-006	0	
-9.03106e-006	-9.54227e-006	0	
-8.88954e-006	-9.55098e-006	0	
-8.74161e-006	-9.55702e-006	0	
-8.58706e-006	-9.56082e-006	0	
-8.42615e-006	-9.5628e-006	0	
-8.25933e-006	-9.56318e-006	0	
-8.08756e-006	-9.56233e-006	0	
-7.91145e-006	-9.56071e-006	0	
-7.73221e-006	-9.55904e-006	0	
-7.55085e-006	-9.55747e-006	0	
-7.36831e-006	-9.55624e-006	0	
-7.18493e-006	-9.55534e-006	0	
-7.00082e-006	-9.55476e-006	0	
-6.81611e-006	-9.55447e-006	0	
-6.631e-006	-9.55432e-006	0	
-6.44562e-006	-9.55421e-006	0	
-6.26007e-006	-9.55412e-006	0	
-6.07438e-006	-9.55403e-006	0	
-5.88857e-006	-9.55393e-006	0	
-5.70265e-006	-9.55382e-006	0	
-5.51662e-006	-9.55368e-006	0	
-5.33048e-006	-9.55352e-006	0	
-5.14425e-006	-9.55334e-006	0	
-4.95793e-006	-9.55312e-006	0	
-4.77152e-006	-9.55289e-006	0	
-4.58505e-006	-9.55264e-006	0	
-4.39849e-006	-9.55239e-006	0	
-4.21184e-006	-9.5521e-006	0	
-4.02506e-006	-9.55179e-006	0	
-3.83814e-006	-9.55146e-006	0	
-3.65109e-006	-9.5511e-006	0	
-3.46387e-006	-9.55072e-006	0	
-3.2765e-006	-9.55031e-006	0	
-3.08893e-006	-9.54983e-006	0	
-2.90112e-006	-9.54908e-006	0	
-2.71263e-006	-9.54725e-006	0	
-2.52323e-006	-9.54306e-006	0	
-2.33286e-006	-9.53606e-006	0	
-2.14082e-006	-9.52735e-006	0	
-1.94711e-006	-9.51558e-006	0	
-1.75267e-006	-9.50291e-006	0	
-1.55741e-006	-9.48859e-006	0	
-1.36068e-006	-9.47398e-006	0	
-1.16294e-006	-9.45829e-006	0	
-9.63624e-007	-9.44252e-006	0	
-7.62828e-007	-9.42592e-006	0	
-5.60989e-007	-9.40991e-006	0	
-3.57537e-007	-9.39387e-006	0	
-1.5257e-007	-9.3786e-006	0	
5.33489e-008	-9.36327e-006	0	
2.61052e-007	-9.34842e-006	0	
4.69427e-007	-9.3345e-006	0	
6.78102e-007	-9.32201e-006	0	
8.88039e-007	-9.31022e-006	0	
1.0985e-006	-9.29952e-006	0	
1.30863e-006	-9.29005e-006	0	
1.51927e-006	-9.28169e-006	0	
1.72961e-006	-9.27442e-006	0	
1.93878e-006	-9.26845e-006	0	
2.14756e-006	-9.26424e-006	0	
2.35568e-006	-9.26118e-006	0	
-1.76706e-018	-3.28708e-018	0	
-2.81822e-007	-1.48436e-007	0	
-5.72869e-007	-3.02589e-007	0	
-8.66541e-007	-4.63069e-007	0	
-1.15493e-006	-6.27792e-007	0	
-1.43143e-006	-7.93718e-007	0	
-1.69151e-006	-9.57979e-007	0	
-1.9328e-006	-1.11816e-006	0	
-2.15517e-006	-1.27249e-006	0	
-2.3601e-006	-1.42029e-006	0	
-2.54907e-006	-1.56207e-006	0	
-2.72279e-006	-1.69844e-006	0	
-2.88232e-006	-1.82953e-006	0	
-3.02981e-006	-1.95506e-006	0	
-3.17001e-006	-2.07435e-006	0	
-3.30587e-006	-2.19085e-006	0	
-3.42669e-006	-2.30522e-006	0	
-3.53066e-006	-2.41213e-006	0	
-3.62473e-006	-2.52102e-006	0	
-3.69664e-006	-2.63778e-006	0	
-3.79375e-006	-2.73975e-006	0	
-3.78702e-006	-2.74935e-006	0	
-3.84607e-006	-2.81011e-006	0	
-3.95613e-006	-2.99444e-006	0	
-4.61354e-006	-5.39002e-006	0	
-5.5358e-006	-7.69409e-006	0	
-6.06745e-006	-7.70067e-006	0	
-6.59541e-006	-7.70256e-006	0	
-7.11791e-006	-7.70853e-006	0	
-7.61687e-006	-7.74662e-006	0	
-8.12004e-006	-7.88657e-006	0	
-8.63265e-006	-7.98933e-006	0	
-9.12683e-006	-8.21586e-006	0	
-9.46975e-006	-8.68137e-006	0	
-9.56179e-006	-9.16256e-006	0	
-9.54176e-006	-9.43143e-006	0	
-9.4829e-006	-9.5412e-006	0	
-9.39161e-006	-9.60241e-006	0	
-9.28212e-006	-9.64233e-006	0	
-9.15924e-006	-9.66933e-006	0	
-9.02689e-006	-9.68918e-006	0	
-8.88657e-006	-9.70394e-006	0	
-8.73952e-006	-9.71525e-006	0	
-8.58545e-006	-9.72329e-006	0	
-8.42499e-006	-9.72922e-006	0	
-8.25861e-006	-9.73329e-006	0	
-8.08717e-006	-9.73593e-006	0	
-7.91134e-006	-9.73742e-006	0	
-7.73216e-006	-9.73811e-006	0	
-7.55078e-006	-9.73843e-006	0	
-7.36819e-006	-9.7387e-006	0	
-7.18481e-006	-9.73898e-006	0	
-7.00073e-006	-9.73927e-006	0	
-6.81609e-006	-9.73951e-006	0	
-6.63102e-006	-9.73965e-006	0	
-6.44566e-006	-9.73972e-006	0	
-6.26012e-006	-9.73975e-006	0	
-6.07443e-006	-9.73975e-006	0	
-5.88862e-006	-9.73973e-006	0	
-5.7027e-006	-9.73969e-006	0	
-5.51669e-006	-9.73962e-006	0	
-5.33057e-006	-9.73953e-006	0	
-5.14435e-006	-9.73939e-006	0	
-4.95804e-006	-9.73923e-006	0	
-4.77163e-006	-9.73903e-006	0	
-4.58514e-006	-9.7388e-006	0	
-4.39855e-006	-9.73855e-006	0	
-4.21186e-006	-9.73829e-006	0	
-4.02505e-006	-9.73799e-006	0	
-3.8381e-006	-9.73765e-006	0	
-3.651e-006	-9.73728e-006	0	
-3.46375e-006	-9.73688e-006	0	
-3.27636e-006	-9.73649e-006	0	
-3.08877e-006	-9.73603e-006	0	
-2.90106e-006	-9.73554e-006	0	
-2.71305e-006	-9.73492e-006	0	
-2.52433e-006	-9.73327e-006	0	
-2.33475e-006	-9.73004e-006	0	
-2.14429e-006	-9.72393e-006	0	
-1.95229e-006	-9.71549e-006	0	
-1.75924e-006	-9.70413e-006	0	
-1.56426e-006	-9.69132e-006	0	
-1.36824e-006	-9.67727e-006	0	
-1.17117e-006	-9.66308e-006	0	
-9.72469e-007	-9.64754e-006	0	
-7.71732e-007	-9.63249e-006	0	
-5.70351e-007	-9.61675e-006	0	
-3.66853e-007	-9.60125e-006	0	
-1.61615e-007	-9.58635e-006	0	
4.40886e-008	-9.57193e-006	0	
2.5126e-007	-9.55731e-006	0	
4.60267e-007	-9.54376e-006	0	
6.69581e-007	-9.53107e-006	0	
8.79382e-007	-9.51944e-006	0	
1.08992e-006	-9.50886e-006	0	
1.30076e-006	-9.49932e-006	0	
1.51131e-006	-9.49078e-006	0	
1.72134e-006	-9.48343e-006	0	
1.93114e-006	-9.47703e-006	0	
2.14042e-006	-9.4723e-006	0	
2.34863e-006	-9.46884e-006	0	
-1.7447e-018	-3.22727e-018	0	
-2.75004e-007	-1.46122e-007	0	
-5.55256e-007	-2.97695e-007	0	
-8.37632e-007	-4.5473e-007	0	
-1.11648e-006	-6.15795e-007	0	
-1.38617e-006	-7.78792e-007	0	
-1.6424e-006	-9.41522e-007	0	
-1.88262e-006	-1.10198e-006	0	
-2.10599e-006	-1.25861e-006	0	
-2.31286e-006	-1.41054e-006	0	
-2.50404e-006	-1.55752e-006	0	
-2.68043e-006	-1.69952e-006	0	
-2.84329e-006	-1.8364e-006	0	
-2.99455e-006	-1.96807e-006	0	
-3.13667e-006	-2.09503e-006	0	
-3.2702e-006	-2.21919e-006	0	
-3.39166e-006	-2.34139e-006	0	
-3.50002e-006	-2.46023e-006	0	
-3.59613e-006	-2.57596e-006	0	
-3.68393e-006	-2.68739e-006	0	
-3.77051e-006	-2.80425e-006	0	
-3.82565e-006	-2.93439e-006	0	
-3.94079e-006	-3.08475e-006	0	
-3.98476e-006	-3.13665e-006	0	
-3.96544e-006	-3.14741e-006	0	
-4.00822e-006	-3.23544e-006	0	
-5.72325e-006	-6.49903e-006	0	
-6.57921e-006	-7.15562e-006	0	
-7.0956e-006	-7.21007e-006	0	
-7.57988e-006	-7.28059e-006	0	
-8.07265e-006	-7.38885e-006	0	
-8.57294e-006	-7.47177e-006	0	
-9.01007e-006	-7.65043e-006	0	
-9.32386e-006	-7.9706e-006	0	
-9.38563e-006	-8.53794e-006	0	
-9.36915e-006	-9.12952e-006	0	
-9.38605e-006	-9.50872e-006	0	
-9.35147e-006	-9.70079e-006	0	
-9.26713e-006	-9.78296e-006	0	
-9.15178e-006	-9.82085e-006	0	
-9.02166e-006	-9.84406e-006	0	
-8.88248e-006	-9.86156e-006	0	
-8.73636e-006	-9.87645e-006	0	
-8.58287e-006	-9.88871e-006	0	