# vtk DataFile Version 4.1
vtk output
ASCII
DATASET UNSTRUCTURED_GRID

POINTS	9	float
0	0	0	
0.5	0	0	
1	0	0	
0	0.5	0	
0.5	0.5	0	
1	0.5	0	
0	1	0	
0.5	1	0	
1	1	0	

CELLS 4	20
4	0	1	4	3	
4	1	2	5	4	
4	3	4	7	6	
4	4	5	8	7	

CELL_TYPES	4
9
9
9
9

POINT_DATA	9
VECTORS chi0 float
-1.52163e-007	-8.58173e-008	0	
4.07452e-008	-2.24639e-007	0	
5.54566e-007	-3.88701e-007	0	
-6.4435e-007	2.77644e-008	0	
7.86055e-008	1.16105e-007	0	
7.69109e-007	2.77642e-008	0	
-8.58893e-007	2.17067e-007	0	
4.07449e-008	3.81129e-007	0	
5.54567e-007	2.17067e-007	0	
VECTORS chi1 float
-8.58173e-008	-1.52163e-007	0	
2.77644e-008	-6.4435e-007	0	
2.17067e-007	-8.58893e-007	0	
-2.24639e-007	4.07452e-008	0	
1.16105e-007	7.86055e-008	0	
3.81129e-007	4.07449e-008	0	
-3.88701e-007	5.54566e-007	0	
2.77642e-008	7.69109e-007	0	
2.17067e-007	5.54567e-007	0	
VECTORS chi2 float
-4.75962e-008	-4.75962e-008	0	
-1.88221e-007	2.81249e-008	0	
-2.49519e-007	1.54327e-007	0	
2.81249e-008	-1.88221e-007	0	
3.89423e-008	3.89423e-008	0	
2.8125e-008	2.15625e-007	0	
1.54327e-007	-2.49519e-007	0	
2.15625e-007	2.8125e-008	0	
1.54327e-007	1.54327e-007	0	
