# vtk DataFile Version 4.1
vtk output
ASCII
DATASET UNSTRUCTURED_GRID

POINTS	9	float
0	0	0	
1	0	0	
2	0	0	
0	1	0	
1	1	0	
2	1	0	
0	2	0	
1	2	0	
2	2	0	

CELLS 4	20
4	0	1	4	3	
4	1	2	5	4	
4	3	4	7	6	
4	4	5	8	7	

CELL_TYPES	4
9
9
9
9

POINT_DATA	9
VECTORS chi0 float
0.409091	-1.93388e-008	0	
-0.409091	1.93388e-008	0	
0.409091	-1.93388e-008	0	
0.409091	-1.93388e-008	0	
-0.409091	1.93388e-008	0	
0.409091	-1.93388e-008	0	
0.409091	-1.93388e-008	0	
-0.409091	1.93388e-008	0	
0.409091	-1.93388e-008	0	
VECTORS chi1 float
0.175325	-8.28808e-009	0	
-0.175325	8.28808e-009	0	
0.175325	-8.28808e-009	0	
0.175325	-8.28808e-009	0	
-0.175325	8.28808e-009	0	
0.175325	-8.28808e-009	0	
0.175325	-8.28808e-009	0	
-0.175325	8.28808e-009	0	
0.175325	-8.28808e-009	0	
VECTORS chi2 float
-5.52538e-009	0.409091	0	
5.52538e-009	-0.409091	0	
-5.52538e-009	0.409091	0	
-5.52538e-009	0.409091	0	
5.52538e-009	-0.409091	0	
-5.52538e-009	0.409091	0	
-5.52538e-009	0.409091	0	
5.52538e-009	-0.409091	0	
-5.52538e-009	0.409091	0	
