# vtk DataFile Version 4.1
vtk output
ASCII
DATASET UNSTRUCTURED_GRID

POINTS	4	float
0	0	0	
5	0	0	
10	0	0	
15	0	0	

CELLS 3	9
2	0	1	
2	1	2	
2	2	3	

CELL_TYPES	3
3
3
3

POINT_DATA	4
VECTORS u float
0	0	0	
0	0	-0.0900286	
0	0	-0.322914	
0	0	-0.627229	
