# vtk DataFile Version 4.1
vtk output
ASCII
DATASET UNSTRUCTURED_GRID

POINTS	19481	float
0	0	0	
0	1	0	
0	2	0	
0	3	0	
0	4	0	
0	5	0	
0	6	0	
0	7	0	
0	8	0	
0	9	0	
0	10	0	
0	11	0	
0	12	0	
0	13	0	
0	14	0	
0	15	0	
0	16	0	
0	17	0	
0	18	0	
0	19	0	
0	20	0	
0	21	0	
0	22	0	
0	23	0	
0	24	0	
0	25	0	
0	26	0	
0	27	0	
0	28	0	
0	29	0	
0	30	0	
0	31	0	
0	32	0	
0	33	0	
0	34	0	
0	35	0	
0	36	0	
0	37	0	
0	38	0	
0	39	0	
0	40	0	
0	41	0	
0	42	0	
0	43	0	
0	44	0	
0	45	0	
0	46	0	
0	47	0	
0	48	0	
0	49	0	
0	50	0	
0	51	0	
0	52	0	
0	53	0	
0	54	0	
0	55	0	
0	56	0	
0	57	0	
0	58	0	
0	59	0	
0	60	0	
0	61	0	
0	62	0	
0	63	0	
0	64	0	
0	65	0	
0	66	0	
0	67	0	
0	68	0	
0	69	0	
0	70	0	
0	71	0	
0	72	0	
0	73	0	
0	74	0	
0	75	0	
0	76	0	
0	77	0	
0	78	0	
0	79	0	
0	80	0	
0	81	0	
0	82	0	
0	83	0	
0	84	0	
0	85	0	
0	86	0	
0	87	0	
0	88	0	
0	89	0	
0	90	0	
0	91	0	
0	92	0	
0	93	0	
0	94	0	
0	95	0	
0	96	0	
0	97	0	
0	98	0	
0	99	0	
0	100	0	
0	101	0	
0	102	0	
0	103	0	
0	104	0	
0	105	0	
0	106	0	
0	107	0	
0	108	0	
0	109	0	
0	110	0	
0	111	0	
0	112	0	
0	113	0	
0	114	0	
0	115	0	
0	116	0	
0	117	0	
0	118	0	
0	119	0	
0	120	0	
1	0	0	
1	1	0	
1	2	0	
1	3	0	
1	4	0	
1	5	0	
1	6	0	
1	7	0	
1	8	0	
1	9	0	
1	10	0	
1	11	0	
1	12	0	
1	13	0	
1	14	0	
1	15	0	
1	16	0	
1	17	0	
1	18	0	
1	19	0	
1	20	0	
1	21	0	
1	22	0	
1	23	0	
1	24	0	
1	25	0	
1	26	0	
1	27	0	
1	28	0	
1	29	0	
1	30	0	
1	31	0	
1	32	0	
1	33	0	
1	34	0	
1	35	0	
1	36	0	
1	37	0	
1	38	0	
1	39	0	
1	40	0	
1	41	0	
1	42	0	
1	43	0	
1	44	0	
1	45	0	
1	46	0	
1	47	0	
1	48	0	
1	49	0	
1	50	0	
1	51	0	
1	52	0	
1	53	0	
1	54	0	
1	55	0	
1	56	0	
1	57	0	
1	58	0	
1	59	0	
1	60	0	
1	61	0	
1	62	0	
1	63	0	
1	64	0	
1	65	0	
1	66	0	
1	67	0	
1	68	0	
1	69	0	
1	70	0	
1	71	0	
1	72	0	
1	73	0	
1	74	0	
1	75	0	
1	76	0	
1	77	0	
1	78	0	
1	79	0	
1	80	0	
1	81	0	
1	82	0	
1	83	0	
1	84	0	
1	85	0	
1	86	0	
1	87	0	
1	88	0	
1	89	0	
1	90	0	
1	91	0	
1	92	0	
1	93	0	
1	94	0	
1	95	0	
1	96	0	
1	97	0	
1	98	0	
1	99	0	
1	100	0	
1	101	0	
1	102	0	
1	103	0	
1	104	0	
1	105	0	
1	106	0	
1	107	0	
1	108	0	
1	109	0	
1	110	0	
1	111	0	
1	112	0	
1	113	0	
1	114	0	
1	115	0	
1	116	0	
1	117	0	
1	118	0	
1	119	0	
1	120	0	
2	0	0	
2	1	0	
2	2	0	
2	3	0	
2	4	0	
2	5	0	
2	6	0	
2	7	0	
2	8	0	
2	9	0	
2	10	0	
2	11	0	
2	12	0	
2	13	0	
2	14	0	
2	15	0	
2	16	0	
2	17	0	
2	18	0	
2	19	0	
2	20	0	
2	21	0	
2	22	0	
2	23	0	
2	24	0	
2	25	0	
2	26	0	
2	27	0	
2	28	0	
2	29	0	
2	30	0	
2	31	0	
2	32	0	
2	33	0	
2	34	0	
2	35	0	
2	36	0	
2	37	0	
2	38	0	
2	39	0	
2	40	0	
2	41	0	
2	42	0	
2	43	0	
2	44	0	
2	45	0	
2	46	0	
2	47	0	
2	48	0	
2	49	0	
2	50	0	
2	51	0	
2	52	0	
2	53	0	
2	54	0	
2	55	0	
2	56	0	
2	57	0	
2	58	0	
2	59	0	
2	60	0	
2	61	0	
2	62	0	
2	63	0	
2	64	0	
2	65	0	
2	66	0	
2	67	0	
2	68	0	
2	69	0	
2	70	0	
2	71	0	
2	72	0	
2	73	0	
2	74	0	
2	75	0	
2	76	0	
2	77	0	
2	78	0	
2	79	0	
2	80	0	
2	81	0	
2	82	0	
2	83	0	
2	84	0	
2	85	0	
2	86	0	
2	87	0	
2	88	0	
2	89	0	
2	90	0	
2	91	0	
2	92	0	
2	93	0	
2	94	0	
2	95	0	
2	96	0	
2	97	0	
2	98	0	
2	99	0	
2	100	0	
2	101	0	
2	102	0	
2	103	0	
2	104	0	
2	105	0	
2	106	0	
2	107	0	
2	108	0	
2	109	0	
2	110	0	
2	111	0	
2	112	0	
2	113	0	
2	114	0	
2	115	0	
2	116	0	
2	117	0	
2	118	0	
2	119	0	
2	120	0	
3	0	0	
3	1	0	
3	2	0	
3	3	0	
3	4	0	
3	5	0	
3	6	0	
3	7	0	
3	8	0	
3	9	0	
3	10	0	
3	11	0	
3	12	0	
3	13	0	
3	14	0	
3	15	0	
3	16	0	
3	17	0	
3	18	0	
3	19	0	
3	20	0	
3	21	0	
3	22	0	
3	23	0	
3	24	0	
3	25	0	
3	26	0	
3	27	0	
3	28	0	
3	29	0	
3	30	0	
3	31	0	
3	32	0	
3	33	0	
3	34	0	
3	35	0	
3	36	0	
3	37	0	
3	38	0	
3	39	0	
3	40	0	
3	41	0	
3	42	0	
3	43	0	
3	44	0	
3	45	0	
3	46	0	
3	47	0	
3	48	0	
3	49	0	
3	50	0	
3	51	0	
3	52	0	
3	53	0	
3	54	0	
3	55	0	
3	56	0	
3	57	0	
3	58	0	
3	59	0	
3	60	0	
3	61	0	
3	62	0	
3	63	0	
3	64	0	
3	65	0	
3	66	0	
3	67	0	
3	68	0	
3	69	0	
3	70	0	
3	71	0	
3	72	0	
3	73	0	
3	74	0	
3	75	0	
3	76	0	
3	77	0	
3	78	0	
3	79	0	
3	80	0	
3	81	0	
3	82	0	
3	83	0	
3	84	0	
3	85	0	
3	86	0	
3	87	0	
3	88	0	
3	89	0	
3	90	0	
3	91	0	
3	92	0	
3	93	0	
3	94	0	
3	95	0	
3	96	0	
3	97	0	
3	98	0	
3	99	0	
3	100	0	
3	101	0	
3	102	0	
3	103	0	
3	104	0	
3	105	0	
3	106	0	
3	107	0	
3	108	0	
3	109	0	
3	110	0	
3	111	0	
3	112	0	
3	113	0	
3	114	0	
3	115	0	
3	116	0	
3	117	0	
3	118	0	
3	119	0	
3	120	0	
4	0	0	
4	1	0	
4	2	0	
4	3	0	
4	4	0	
4	5	0	
4	6	0	
4	7	0	
4	8	0	
4	9	0	
4	10	0	
4	11	0	
4	12	0	
4	13	0	
4	14	0	
4	15	0	
4	16	0	
4	17	0	
4	18	0	
4	19	0	
4	20	0	
4	21	0	
4	22	0	
4	23	0	
4	24	0	
4	25	0	
4	26	0	
4	27	0	
4	28	0	
4	29	0	
4	30	0	
4	31	0	
4	32	0	
4	33	0	
4	34	0	
4	35	0	
4	36	0	
4	37	0	
4	38	0	
4	39	0	
4	40	0	
4	41	0	
4	42	0	
4	43	0	
4	44	0	
4	45	0	
4	46	0	
4	47	0	
4	48	0	
4	49	0	
4	50	0	
4	51	0	
4	52	0	
4	53	0	
4	54	0	
4	55	0	
4	56	0	
4	57	0	
4	58	0	
4	59	0	
4	60	0	
4	61	0	
4	62	0	
4	63	0	
4	64	0	
4	65	0	
4	66	0	
4	67	0	
4	68	0	
4	69	0	
4	70	0	
4	71	0	
4	72	0	
4	73	0	
4	74	0	
4	75	0	
4	76	0	
4	77	0	
4	78	0	
4	79	0	
4	80	0	
4	81	0	
4	82	0	
4	83	0	
4	84	0	
4	85	0	
4	86	0	
4	87	0	
4	88	0	
4	89	0	
4	90	0	
4	91	0	
4	92	0	
4	93	0	
4	94	0	
4	95	0	
4	96	0	
4	97	0	
4	98	0	
4	99	0	
4	100	0	
4	101	0	
4	102	0	
4	103	0	
4	104	0	
4	105	0	
4	106	0	
4	107	0	
4	108	0	
4	109	0	
4	110	0	
4	111	0	
4	112	0	
4	113	0	
4	114	0	
4	115	0	
4	116	0	
4	117	0	
4	118	0	
4	119	0	
4	120	0	
5	0	0	
5	1	0	
5	2	0	
5	3	0	
5	4	0	
5	5	0	
5	6	0	
5	7	0	
5	8	0	
5	9	0	
5	10	0	
5	11	0	
5	12	0	
5	13	0	
5	14	0	
5	15	0	
5	16	0	
5	17	0	
5	18	0	
5	19	0	
5	20	0	
5	21	0	
5	22	0	
5	23	0	
5	24	0	
5	25	0	
5	26	0	
5	27	0	
5	28	0	
5	29	0	
5	30	0	
5	31	0	
5	32	0	
5	33	0	
5	34	0	
5	35	0	
5	36	0	
5	37	0	
5	38	0	
5	39	0	
5	40	0	
5	41	0	
5	42	0	
5	43	0	
5	44	0	
5	45	0	
5	46	0	
5	47	0	
5	48	0	
5	49	0	
5	50	0	
5	51	0	
5	52	0	
5	53	0	
5	54	0	
5	55	0	
5	56	0	
5	57	0	
5	58	0	
5	59	0	
5	60	0	
5	61	0	
5	62	0	
5	63	0	
5	64	0	
5	65	0	
5	66	0	
5	67	0	
5	68	0	
5	69	0	
5	70	0	
5	71	0	
5	72	0	
5	73	0	
5	74	0	
5	75	0	
5	76	0	
5	77	0	
5	78	0	
5	79	0	
5	80	0	
5	81	0	
5	82	0	
5	83	0	
5	84	0	
5	85	0	
5	86	0	
5	87	0	
5	88	0	
5	89	0	
5	90	0	
5	91	0	
5	92	0	
5	93	0	
5	94	0	
5	95	0	
5	96	0	
5	97	0	
5	98	0	
5	99	0	
5	100	0	
5	101	0	
5	102	0	
5	103	0	
5	104	0	
5	105	0	
5	106	0	
5	107	0	
5	108	0	
5	109	0	
5	110	0	
5	111	0	
5	112	0	
5	113	0	
5	114	0	
5	115	0	
5	116	0	
5	117	0	
5	118	0	
5	119	0	
5	120	0	
6	0	0	
6	1	0	
6	2	0	
6	3	0	
6	4	0	
6	5	0	
6	6	0	
6	7	0	
6	8	0	
6	9	0	
6	10	0	
6	11	0	
6	12	0	
6	13	0	
6	14	0	
6	15	0	
6	16	0	
6	17	0	
6	18	0	
6	19	0	
6	20	0	
6	21	0	
6	22	0	
6	23	0	
6	24	0	
6	25	0	
6	26	0	
6	27	0	
6	28	0	
6	29	0	
6	30	0	
6	31	0	
6	32	0	
6	33	0	
6	34	0	
6	35	0	
6	36	0	
6	37	0	
6	38	0	
6	39	0	
6	40	0	
6	41	0	
6	42	0	
6	43	0	
6	44	0	
6	45	0	
6	46	0	
6	47	0	
6	48	0	
6	49	0	
6	50	0	
6	51	0	
6	52	0	
6	53	0	
6	54	0	
6	55	0	
6	56	0	
6	57	0	
6	58	0	
6	59	0	
6	60	0	
6	61	0	
6	62	0	
6	63	0	
6	64	0	
6	65	0	
6	66	0	
6	67	0	
6	68	0	
6	69	0	
6	70	0	
6	71	0	
6	72	0	
6	73	0	
6	74	0	
6	75	0	
6	76	0	
6	77	0	
6	78	0	
6	79	0	
6	80	0	
6	81	0	
6	82	0	
6	83	0	
6	84	0	
6	85	0	
6	86	0	
6	87	0	
6	88	0	
6	89	0	
6	90	0	
6	91	0	
6	92	0	
6	93	0	
6	94	0	
6	95	0	
6	96	0	
6	97	0	
6	98	0	
6	99	0	
6	100	0	
6	101	0	
6	102	0	
6	103	0	
6	104	0	
6	105	0	
6	106	0	
6	107	0	
6	108	0	
6	109	0	
6	110	0	
6	111	0	
6	112	0	
6	113	0	
6	114	0	
6	115	0	
6	116	0	
6	117	0	
6	118	0	
6	119	0	
6	120	0	
7	0	0	
7	1	0	
7	2	0	
7	3	0	
7	4	0	
7	5	0	
7	6	0	
7	7	0	
7	8	0	
7	9	0	
7	10	0	
7	11	0	
7	12	0	
7	13	0	
7	14	0	
7	15	0	
7	16	0	
7	17	0	
7	18	0	
7	19	0	
7	20	0	
7	21	0	
7	22	0	
7	23	0	
7	24	0	
7	25	0	
7	26	0	
7	27	0	
7	28	0	
7	29	0	
7	30	0	
7	31	0	
7	32	0	
7	33	0	
7	34	0	
7	35	0	
7	36	0	
7	37	0	
7	38	0	
7	39	0	
7	40	0	
7	41	0	
7	42	0	
7	43	0	
7	44	0	
7	45	0	
7	46	0	
7	47	0	
7	48	0	
7	49	0	
7	50	0	
7	51	0	
7	52	0	
7	53	0	
7	54	0	
7	55	0	
7	56	0	
7	57	0	
7	58	0	
7	59	0	
7	60	0	
7	61	0	
7	62	0	
7	63	0	
7	64	0	
7	65	0	
7	66	0	
7	67	0	
7	68	0	
7	69	0	
7	70	0	
7	71	0	
7	72	0	
7	73	0	
7	74	0	
7	75	0	
7	76	0	
7	77	0	
7	78	0	
7	79	0	
7	80	0	
7	81	0	
7	82	0	
7	83	0	
7	84	0	
7	85	0	
7	86	0	
7	87	0	
7	88	0	
7	89	0	
7	90	0	
7	91	0	
7	92	0	
7	93	0	
7	94	0	
7	95	0	
7	96	0	
7	97	0	
7	98	0	
7	99	0	
7	100	0	
7	101	0	
7	102	0	
7	103	0	
7	104	0	
7	105	0	
7	106	0	
7	107	0	
7	108	0	
7	109	0	
7	110	0	
7	111	0	
7	112	0	
7	113	0	
7	114	0	
7	115	0	
7	116	0	
7	117	0	
7	118	0	
7	119	0	
7	120	0	
8	0	0	
8	1	0	
8	2	0	
8	3	0	
8	4	0	
8	5	0	
8	6	0	
8	7	0	
8	8	0	
8	9	0	
8	10	0	
8	11	0	
8	12	0	
8	13	0	
8	14	0	
8	15	0	
8	16	0	
8	17	0	
8	18	0	
8	19	0	
8	20	0	
8	21	0	
8	22	0	
8	23	0	
8	24	0	
8	25	0	
8	26	0	
8	27	0	
8	28	0	
8	29	0	
8	30	0	
8	31	0	
8	32	0	
8	33	0	
8	34	0	
8	35	0	
8	36	0	
8	37	0	
8	38	0	
8	39	0	
8	40	0	
8	41	0	
8	42	0	
8	43	0	
8	44	0	
8	45	0	
8	46	0	
8	47	0	
8	48	0	
8	49	0	
8	50	0	
8	51	0	
8	52	0	
8	53	0	
8	54	0	
8	55	0	
8	56	0	
8	57	0	
8	58	0	
8	59	0	
8	60	0	
8	61	0	
8	62	0	
8	63	0	
8	64	0	
8	65	0	
8	66	0	
8	67	0	
8	68	0	
8	69	0	
8	70	0	
8	71	0	
8	72	0	
8	73	0	
8	74	0	
8	75	0	
8	76	0	
8	77	0	
8	78	0	
8	79	0	
8	80	0	
8	81	0	
8	82	0	
8	83	0	
8	84	0	
8	85	0	
8	86	0	
8	87	0	
8	88	0	
8	89	0	
8	90	0	
8	91	0	
8	92	0	
8	93	0	
8	94	0	
8	95	0	
8	96	0	
8	97	0	
8	98	0	
8	99	0	
8	100	0	
8	101	0	
8	102	0	
8	103	0	
8	104	0	
8	105	0	
8	106	0	
8	107	0	
8	108	0	
8	109	0	
8	110	0	
8	111	0	
8	112	0	
8	113	0	
8	114	0	
8	115	0	
8	116	0	
8	117	0	
8	118	0	
8	119	0	
8	120	0	
9	0	0	
9	1	0	
9	2	0	
9	3	0	
9	4	0	
9	5	0	
9	6	0	
9	7	0	
9	8	0	
9	9	0	
9	10	0	
9	11	0	
9	12	0	
9	13	0	
9	14	0	
9	15	0	
9	16	0	
9	17	0	
9	18	0	
9	19	0	
9	20	0	
9	21	0	
9	22	0	
9	23	0	
9	24	0	
9	25	0	
9	26	0	
9	27	0	
9	28	0	
9	29	0	
9	30	0	
9	31	0	
9	32	0	
9	33	0	
9	34	0	
9	35	0	
9	36	0	
9	37	0	
9	38	0	
9	39	0	
9	40	0	
9	41	0	
9	42	0	
9	43	0	
9	44	0	
9	45	0	
9	46	0	
9	47	0	
9	48	0	
9	49	0	
9	50	0	
9	51	0	
9	52	0	
9	53	0	
9	54	0	
9	55	0	
9	56	0	
9	57	0	
9	58	0	
9	59	0	
9	60	0	
9	61	0	
9	62	0	
9	63	0	
9	64	0	
9	65	0	
9	66	0	
9	67	0	
9	68	0	
9	69	0	
9	70	0	
9	71	0	
9	72	0	
9	73	0	
9	74	0	
9	75	0	
9	76	0	
9	77	0	
9	78	0	
9	79	0	
9	80	0	
9	81	0	
9	82	0	
9	83	0	
9	84	0	
9	85	0	
9	86	0	
9	87	0	
9	88	0	
9	89	0	
9	90	0	
9	91	0	
9	92	0	
9	93	0	
9	94	0	
9	95	0	
9	96	0	
9	97	0	
9	98	0	
9	99	0	
9	100	0	
9	101	0	
9	102	0	
9	103	0	
9	104	0	
9	105	0	
9	106	0	
9	107	0	
9	108	0	
9	109	0	
9	110	0	
9	111	0	
9	112	0	
9	113	0	
9	114	0	
9	115	0	
9	116	0	
9	117	0	
9	118	0	
9	119	0	
9	120	0	
10	0	0	
10	1	0	
10	2	0	
10	3	0	
10	4	0	
10	5	0	
10	6	0	
10	7	0	
10	8	0	
10	9	0	
10	10	0	
10	11	0	
10	12	0	
10	13	0	
[...]
POINT_DATA	19481
VECTORS u float
0	0	0	
0	0	0	
0	0	0	
0	0	0	
0	0	0	
0	0	0	
0	0	0	
0	0	0	
0	0	0	
0	0	0	
0	0	0	
0	0	0	
0	0	0	
0	0	0	
0	0	0	
0	0	0	
0	0	0	
0	0	0	
0	0	0	
0	0	0	
0	0	0	
0	0	0	
0	0	0	
0	0	0	
0	0	0	
0	0	0	
0	0	0	
0	0	0	
0	0	0	
0	0	0	
0	0	0	
0	0	0	
0	0	0	
0	0	0	
0	0	0	
0	0	0	
0	0	0	
0	0	0	
0	0	0	
0	0	0	
0	0	0	
0	0	0	
0	0	0	
0	0	0	
0	0	0	
0	0	0	
0	0	0	
0	0	0	
0	0	0	
0	0	0	
0	0	0	
0	0	0	
0	0	0	
0	0	0	
0	0	0	
0	0	0	
0	0	0	
0	0	0	
0	0	0	
0	0	0	
0	0	0	
0	0	0	
0	0	0	
0	0	0	
0	0	0	
0	0	0	
0	0	0	
0	0	0	
0	0	0	
0	0	0	
0	0	0	
0	0	0	
0	0	0	
0	0	0	
0	0	0	
0	0	0	
0	0	0	
0	0	0	
0	0	0	
0	0	0	
0	0	0	
0	0	0	
0	0	0	
0	0	0	
0	0	0	
0	0	0	
0	0	0	
0	0	0	
0	0	0	
0	0	0	
0	0	0	
0	0	0	
0	0	0	
0	0	0	
0	0	0	
0	0	0	
0	0	0	
0	0	0	
0	0	0	
0	0	0	
0	0	0	
0	0	0	
0	0	0	
0	0	0	
0	0	0	
0	0	0	
0	0	0	
0	0	0	
0	0	0	
0	0	0	
0	0	0	
0	0	0	
0	0	0	
0	0	0	
0	0	0	
0	0	0	
0	0	0	
0	0	0	
0	0	0	
0	0	0	
0	0	0	
-0.216834	-0.205648	0	
-0.128831	-0.136211	0	
-0.105393	-0.108261	0	
-0.0909168	-0.0933955	0	
-0.0812249	-0.0839597	0	
-0.0737549	-0.077438	0	
-0.0676258	-0.0726806	0	
-0.0623616	-0.069101	0	
-0.0576996	-0.0663567	0	
-0.0534759	-0.0642293	0	
-0.0495802	-0.0625661	0	
-0.0459312	-0.0612498	0	
-0.0424624	-0.0601785	0	
-0.0391107	-0.0592487	0	
-0.035804	-0.0583352	0	
-0.0324333	-0.0572571	0	
-0.0288133	-0.0557253	0	
-0.0242942	-0.0532266	0	
-0.0180092	-0.0492065	0	
0.0125639	-0.0457665	0	
0.00486434	-0.0596137	0	
0.00142031	-0.0692243	0	
-0.00133521	-0.0711534	0	
0.000196204	-0.0731947	0	
0.00168346	-0.0761837	0	
0.00248438	-0.0792883	0	
0.00276114	-0.0821176	0	
0.00270044	-0.084504	0	
0.00247013	-0.0864475	0	
0.00216987	-0.0880096	0	
0.00185214	-0.0892662	0	
0.00154058	-0.0902806	0	
0.00124683	-0.0911012	0	
0.000976859	-0.0917653	0	
0.000733474	-0.0923023	0	
0.000517294	-0.0927359	0	
0.000327622	-0.0930852	0	
0.000163089	-0.0933653	0	
2.20621e-005	-0.0935888	0	
-9.71678e-005	-0.0937656	0	
-0.000196299	-0.0939043	0	
-0.000276995	-0.0940119	0	
-0.000340866	-0.0940942	0	
-0.000389465	-0.0941561	0	
-0.000424279	-0.0942019	0	
-0.000446714	-0.094235	0	
-0.000458098	-0.0942581	0	
-0.000459669	-0.0942737	0	
-0.000452575	-0.0942835	0	
-0.000437874	-0.0942891	0	
-0.000416538	-0.0942917	0	
-0.000389454	-0.0942922	0	
-0.00035743	-0.0942914	0	
-0.000321202	-0.0942897	0	
-0.000281442	-0.0942877	0	
-0.000238762	-0.0942856	0	
-0.000193726	-0.0942836	0	
-0.000146856	-0.094282	0	
-9.8639e-005	-0.0942807	0	
-4.95383e-005	-0.0942799	0	
6.78254e-015	-0.0942797	0	
4.95383e-005	-0.0942799	0	
9.8639e-005	-0.0942807	0	
0.000146856	-0.094282	0	
0.000193726	-0.0942836	0	
0.000238762	-0.0942856	0	
0.000281442	-0.0942877	0	
0.000321202	-0.0942897	0	
0.00035743	-0.0942914	0	
0.000389454	-0.0942922	0	
0.000416538	-0.0942917	0	
0.000437874	-0.0942891	0	
0.000452575	-0.0942835	0	
0.000459669	-0.0942737	0	
0.000458098	-0.0942581	0	
0.000446714	-0.094235	0	
0.000424279	-0.0942019	0	
0.000389465	-0.0941561	0	
0.000340866	-0.0940942	0	
0.000276995	-0.0940119	0	
0.000196299	-0.0939043	0	
9.71678e-005	-0.0937656	0	
-2.20621e-005	-0.0935888	0	
-0.000163089	-0.0933653	0	
-0.000327622	-0.0930852	0	
-0.000517294	-0.0927359	0	
-0.000733474	-0.0923023	0	
-0.000976859	-0.0917653	0	
-0.00124683	-0.0911012	0	
-0.00154058	-0.0902806	0	
-0.00185214	-0.0892662	0	
-0.00216987	-0.0880096	0	
-0.00247013	-0.0864475	0	
-0.00270044	-0.084504	0	
-0.00276114	-0.0821176	0	
-0.00248438	-0.0792883	0	
-0.00168346	-0.0761837	0	
-0.000196204	-0.0731947	0	
0.00133521	-0.0711534	0	
-0.00142031	-0.0692243	0	
-0.00486434	-0.0596137	0	
-0.0125639	-0.0457665	0	
0.0180092	-0.0492065	0	
0.0242942	-0.0532266	0	
0.0288133	-0.0557253	0	
0.0324333	-0.0572571	0	
0.035804	-0.0583352	0	
0.0391107	-0.0592487	0	
0.0424624	-0.0601785	0	
0.0459312	-0.0612498	0	
0.0495802	-0.0625661	0	
0.0534759	-0.0642293	0	
0.0576996	-0.0663567	0	
0.0623616	-0.069101	0	
0.0676258	-0.0726806	0	
0.0737549	-0.077438	0	
0.0812249	-0.0839597	0	
0.0909168	-0.0933955	0	
0.105393	-0.108261	0	
0.128831	-0.136211	0	
0.216834	-0.205648	0	
-0.375699	-0.335961	0	
-0.276013	-0.278724	0	
-0.220655	-0.231653	0	
-0.189431	-0.201666	0	
-0.167829	-0.181389	0	
-0.15151	-0.166982	0	
-0.138281	-0.156352	0	
-0.127055	-0.148307	0	
-0.117209	-0.142121	0	
-0.108362	-0.137324	0	
-0.10026	-0.133593	0	
-0.0927205	-0.13069	0	
-0.0856005	-0.128429	0	
-0.078769	-0.126654	0	
-0.0720811	-0.125226	0	
-0.0653312	-0.124028	0	
-0.0580917	-0.123012	0	
-0.0494289	-0.122411	0	
-0.0349433	-0.123881	0	
-0.00685562	-0.125323	0	
0.0251555	-0.13307	0	
-0.000924312	-0.1386	0	
-0.00106596	-0.142561	0	
0.00286164	-0.149039	0	
0.00563994	-0.155045	0	
0.00701759	-0.160636	0	
0.00723289	-0.165543	0	
0.00679724	-0.169704	0	
0.006071	-0.17315	0	
0.00526433	-0.175996	0	
0.00446348	-0.178348	0	
0.00370459	-0.180293	0	
0.00300433	-0.181896	0	
0.00237128	-0.183214	0	
0.00180786	-0.184296	0	
0.00131234	-0.185183	0	
0.000880769	-0.185907	0	
0.000508419	-0.186497	0	
0.00019048	-0.186974	0	
-7.76635e-005	-0.187359	0	
-0.000300377	-0.187666	0	
-0.00048179	-0.18791	0	
-0.000625809	-0.188102	0	
-0.000736135	-0.188251	0	
-0.000816252	-0.188367	0	
-0.000869424	-0.188455	0	
-0.000898687	-0.188521	0	
-0.000906847	-0.18857	0	
-0.000896483	-0.188606	0	
-0.000869949	-0.188632	0	
-0.000829383	-0.18865	0	
-0.000776726	-0.188663	0	
-0.000713727	-0.188671	0	
-0.000641968	-0.188676	0	
-0.000562879	-0.188679	0	
-0.000477755	-0.188681	0	
-0.000387778	-0.188682	0	
-0.000294031	-0.188682	0	
-0.000197524	-0.188682	0	
-9.92094e-005	-0.188682	0	
1.4023e-014	-0.188682	0	
9.92094e-005	-0.188682	0	
0.000197524	-0.188682	0	
0.000294031	-0.188682	0	
0.000387778	-0.188682	0	
0.000477755	-0.188681	0	
0.000562879	-0.188679	0	
0.000641968	-0.188676	0	
0.000713727	-0.188671	0	
0.000776726	-0.188663	0	
0.000829383	-0.18865	0	
0.000869949	-0.188632	0	
0.000896483	-0.188606	0	
0.000906847	-0.18857	0	
0.000898687	-0.188521	0	
0.000869424	-0.188455	0	
0.000816252	-0.188367	0	
0.000736135	-0.188251	0	
0.000625809	-0.188102	0	
0.00048179	-0.18791	0	
0.000300377	-0.187666	0	
7.76635e-005	-0.187359	0	
-0.00019048	-0.186974	0	
-0.000508419	-0.186497	0	
-0.000880769	-0.185907	0	
-0.00131234	-0.185183	0	
-0.00180786	-0.184296	0	
-0.00237128	-0.183214	0	
-0.00300433	-0.181896	0	
-0.00370459	-0.180293	0	
-0.00446348	-0.178348	0	
-0.00526433	-0.175996	0	
-0.006071	-0.17315	0	
-0.00679724	-0.169704	0	
-0.00723289	-0.165543	0	
-0.00701759	-0.160636	0	
-0.00563994	-0.155045	0	
-0.00286164	-0.149039	0	
0.00106596	-0.142561	0	
0.000924312	-0.1386	0	
-0.0251555	-0.13307	0	
0.00685562	-0.125323	0	
0.0349433	-0.123881	0	
0.0494289	-0.122411	0	
0.0580917	-0.123012	0	
0.0653312	-0.124028	0	
0.0720811	-0.125226	0	
0.078769	-0.126654	0	
0.0856005	-0.128429	0	
0.0927205	-0.13069	0	
0.10026	-0.133593	0	
0.108362	-0.137324	0	
0.117209	-0.142121	0	
0.127055	-0.148307	0	
0.138281	-0.156352	0	
0.15151	-0.166982	0	
0.167829	-0.181389	0	
0.189431	-0.201666	0	
0.220655	-0.231653	0	
0.276013	-0.278724	0	
0.375699	-0.335961	0	
-0.509429	-0.455337	0	
-0.410203	-0.401453	0	
-0.340499	-0.353262	0	
-0.293	-0.314881	0	
-0.259132	-0.286253	0	
-0.233114	-0.264745	0	
-0.212033	-0.248358	0	
-0.194216	-0.23571	0	
-0.178674	-0.225865	0	
-0.164783	-0.21818	0	
-0.152126	-0.212198	0	
-0.1404	-0.20759	0	
-0.129365	-0.204115	0	
-0.118803	-0.201602	0	
-0.108468	-0.199955	0	
-0.0980006	-0.199182	0	
-0.0867614	-0.199459	0	
-0.0732466	-0.201231	0	
-0.0545408	-0.204005	0	
-0.0294492	-0.204784	0	
0.0220219	-0.195144	0	
-0.00417811	-0.207249	0	
0.00240726	-0.22101	0	
0.00764457	-0.229433	0	
0.0116411	-0.237276	0	
0.0131822	-0.244327	0	
0.0130191	-0.250601	0	
0.0119296	-0.255907	0	
0.0105497	-0.260411	0	
0.00912055	-0.26425	0	
0.00773381	-0.267521	0	
0.00642878	-0.270283	0	
0.00523346	-0.272599	0	
0.00416118	-0.274532	0	
0.00321309	-0.27614	0	
0.00238328	-0.277475	0	
0.00166299	-0.27858	0	
0.00104296	-0.27949	0	
0.0005143	-0.280237	0	
6.87453e-005	-0.280847	0	
-0.000301402	-0.281342	0	
-0.000603353	-0.281741	0	
-0.000843882	-0.282062	0	
-0.00102935	-0.282318	0	
-0.00116569	-0.28252	0	
-0.00125844	-0.28268	0	
-0.00131269	-0.282806	0	
-0.00133312	-0.282903	0	
-0.001324	-0.282979	0	
-0.0012892	-0.283037	0	
-0.00123222	-0.283082	0	
-0.0011562	-0.283117	0	
-0.00106397	-0.283143	0	
-0.000958045	-0.283163	0	
-0.000840711	-0.283177	0	
-0.000714013	-0.283189	0	
-0.000579803	-0.283197	0	
-0.000439776	-0.283202	0	
-0.000295496	-0.283206	0	
-0.000148436	-0.283208	0	
2.17062e-014	-0.283209	0	
0.000148436	-0.283208	0	
0.000295496	-0.283206	0	
0.000439776	-0.283202	0	
0.000579803	-0.283197	0	
0.000714013	-0.283189	0	
0.000840711	-0.283177	0	
0.000958045	-0.283163	0	
0.00106397	-0.283143	0	
0.0011562	-0.283117	0	
0.00123222	-0.283082	0	
0.0012892	-0.283037	0	
0.001324	-0.282979	0	
0.00133312	-0.282903	0	
0.00131269	-0.282806	0	
0.00125844	-0.28268	0	
0.00116569	-0.28252	0	
0.00102935	-0.282318	0	
0.000843882	-0.282062	0	
0.000603353	-0.281741	0	
0.000301402	-0.281342	0	
-6.87453e-005	-0.280847	0	
-0.0005143	-0.280237	0	
-0.00104296	-0.27949	0	
-0.00166299	-0.27858	0	
-0.00238328	-0.277475	0	
-0.00321309	-0.27614	0	
-0.00416118	-0.274532	0	
-0.00523346	-0.272599	0	
-0.00642878	-0.270283	0	
-0.00773381	-0.267521	0	
-0.00912055	-0.26425	0	
-0.0105497	-0.260411	0	
-0.0119296	-0.255907	0	
-0.0130191	-0.250601	0	
-0.0131822	-0.244327	0	
-0.0116411	-0.237276	0	
-0.00764457	-0.229433	0	
-0.00240726	-0.22101	0	
0.00417811	-0.207249	0	
-0.0220219	-0.195144	0	
0.0294492	-0.204784	0	
0.0545408	-0.204005	0	
0.0732466	-0.201231	0	
0.0867614	-0.199459	0	
0.0980006	-0.199182	0	
0.108468	-0.199955	0	
0.118803	-0.201602	0	
0.129365	-0.204115	0	
0.1404	-0.20759	0	
0.152126	-0.212198	0	
0.164783	-0.21818	0	
0.178674	-0.225865	0	
0.194216	-0.23571	0	
0.212033	-0.248358	0	
0.233114	-0.264745	0	
0.259132	-0.286253	0	
0.293	-0.314881	0	
0.340499	-0.353262	0	
0.410203	-0.401453	0	
0.509429	-0.455337	0	
-0.63135	-0.565609	0	
-0.533381	-0.515526	0	
-0.456371	-0.468247	0	
-0.397824	-0.427365	0	
-0.352962	-0.393895	0	
-0.317474	-0.367223	0	
-0.288314	-0.346077	0	
-0.263555	-0.329315	0	
-0.241948	-0.316029	0	
-0.222665	-0.305535	0	
-0.20513	-0.297321	0	
-0.188919	-0.29101	0	
-0.173685	-0.286332	0	
-0.159108	-0.28311	0	
-0.144824	-0.281272	0	
-0.130337	-0.280868	0	
-0.114851	-0.28209	0	
-0.0970898	-0.285118	0	
-0.0757492	-0.289945	0	
-0.0483228	-0.297525	0	
-0.0183458	-0.306632	0	
-0.010472	-0.319073	0	
0.00306537	-0.310792	0	
0.0133904	-0.315853	0	
0.018895	-0.322497	0	
0.0207035	-0.330315	0	
0.0196411	-0.337117	0	
0.0177484	-0.343027	0	
0.0156761	-0.348235	0	
0.0136021	-0.352887	0	
0.0115618	-0.356949	0	
0.00963459	-0.360428	0	
0.00787561	-0.363378	0	
0.00630531	-0.36587	0	
0.00492163	-0.36797	0	
0.00371265	-0.369734	0	
0.00266395	-0.37121	0	
0.00176135	-0.372439	0	
0.000991702	-0.373458	0	
0.000342793	-0.374299	0	
-0.000196784	-0.37499	0	
-0.000637759	-0.375556	0	
-0.000990217	-0.376016	0	
-0.00126361	-0.37639	0	
-0.00146673	-0.376692	0	
-0.00160773	-0.376936	0	
-0.00169408	-0.377133	0	
-0.0017326	-0.37729	0	
-0.00172949	-0.377416	0	
-0.00169032	-0.377517	0	
-0.00162013	-0.377598	0	
-0.00152339	-0.377663	0	
-0.00140411	-0.377714	0	
-0.00126587	-0.377755	0	
-0.00111187	-0.377788	0	
-0.000944975	-0.377813	0	
-0.000767753	-0.377832	0	
-0.000582553	-0.377846	0	
-0.000391531	-0.377856	0	
-0.000196705	-0.377862	0	
2.98363e-014	-0.377864	0	
0.000196705	-0.377862	0	
0.000391531	-0.377856	0	
0.000582553	-0.377846	0	
0.000767753	-0.377832	0	
0.000944975	-0.377813	0	
0.00111187	-0.377788	0	
0.00126587	-0.377755	0	
0.00140411	-0.377714	0	
0.00152339	-0.377663	0	
0.00162013	-0.377598	0	
0.00169032	-0.377517	0	
0.00172949	-0.377416	0	
0.0017326	-0.37729	0	
0.00169408	-0.377133	0	
0.00160773	-0.376936	0	
0.00146673	-0.376692	0	
0.00126361	-0.37639	0	
0.000990217	-0.376016	0	
0.000637759	-0.375556	0	
0.000196784	-0.37499	0	
-0.000342793	-0.374299	0	
-0.000991702	-0.373458	0	
-0.00176135	-0.372439	0	
-0.00266395	-0.37121	0	
-0.00371265	-0.369734	0	
-0.00492163	-0.36797	0	
-0.00630531	-0.36587	0	
-0.00787561	-0.363378	0	
-0.00963459	-0.360428	0	
-0.0115618	-0.356949	0	
-0.0136021	-0.352887	0	
-0.0156761	-0.348235	0	
-0.0177484	-0.343027	0	
-0.0196411	-0.337117	0	
-0.0207035	-0.330315	0	
-0.018895	-0.322497	0	
-0.0133904	-0.315853	0	
-0.00306537	-0.310792	0	
0.010472	-0.319073	0	
0.0183458	-0.306632	0	
0.0483228	-0.297525	0	
0.0757492	-0.289945	0	
0.0970898	-0.285118	0	
0.114851	-0.28209	0	
0.130337	-0.280868	0	
0.144824	-0.281272	0	
0.159108	-0.28311	0	
0.173685	-0.286332	0	
0.188919	-0.29101	0	
0.20513	-0.297321	0	
0.222665	-0.305535	0	
0.241948	-0.316029	0	
0.263555	-0.329315	0	
0.288314	-0.346077	0	
0.317474	-0.367223	0	
0.352962	-0.393895	0	
0.397824	-0.427365	0	
0.456371	-0.468247	0	
0.533381	-0.515526	0	
0.63135	-0.565609	0	
-0.745301	-0.671583	0	
-0.648169	-0.624271	0	
-0.566921	-0.578768	0	
-0.50076	-0.537518	0	
-0.447139	-0.50187	0	
-0.403119	-0.471998	0	
-0.366194	-0.447404	0	
-0.334485	-0.427353	0	
-0.30666	-0.41113	0	
-0.281768	-0.398127	0	
-0.259117	-0.387852	0	
-0.238176	-0.379925	0	
-0.218504	-0.374065	0	
-0.199683	-0.370083	0	
-0.181256	-0.367883	0	
-0.162644	-0.367458	0	
-0.143065	-0.368843	0	
-0.121562	-0.372032	0	
-0.0969653	-0.376946	0	
-0.0689268	-0.382466	0	
-0.0418313	-0.386878	0	
-0.0204781	-0.393215	0	
0.00314942	-0.404346	0	
0.0175094	-0.402015	0	
0.0284756	-0.409797	0	
0.0290377	-0.417464	0	
0.0266735	-0.424415	0	
0.0239722	-0.430491	0	
0.0214115	-0.436456	0	
0.0186517	-0.441947	0	
0.0158663	-0.44674	0	
0.0132412	-0.450849	0	
0.0108642	-0.454358	0	
0.00875326	-0.457353	0	
0.00689611	-0.459904	0	
0.00527272	-0.462069	0	
0.00386294	-0.463896	0	
0.00264827	-0.46543	0	
0.0016116	-0.466714	0	
0.000736827	-0.467783	0	
8.61774e-006	-0.468669	0	
-0.000587601	-0.469402	0	
-0.0010656	-0.470007	0	
-0.0014383	-0.470505	0	
-0.00171768	-0.470914	0	
-0.00191482	-0.47125	0	
-0.00203983	-0.471525	0	
-0.00210192	-0.47175	0	
-0.0021094	-0.471935	0	
-0.00206973	-0.472086	0	
-0.00198959	-0.47221	0	
-0.00187493	-0.472312	0	
-0.00173105	-0.472395	0	
-0.00156265	-0.472462	0	
-0.0013739	-0.472517	0	
-0.00116855	-0.47256	0	
-0.000949928	-0.472594	0	
-0.000721074	-0.472619	0	
-0.000484762	-0.472637	0	
-0.000243582	-0.472647	0	
3.84255e-014	-0.472651	0	
0.000243582	-0.472647	0	
0.000484762	-0.472637	0	
0.000721074	-0.472619	0	
0.000949928	-0.472594	0	
0.00116855	-0.47256	0	
0.0013739	-0.472517	0	
0.00156265	-0.472462	0	
0.00173105	-0.472395	0	
0.00187493	-0.472312	0	
0.00198959	-0.47221	0	
0.00206973	-0.472086	0	
0.0021094	-0.471935	0	
0.00210192	-0.47175	0	
0.00203983	-0.471525	0	
0.00191482	-0.47125	0	
0.00171768	-0.470914	0	
0.0014383	-0.470505	0	
0.0010656	-0.470007	0	
0.000587601	-0.469402	0	
-8.61774e-006	-0.468669	0	
-0.000736827	-0.467783	0	
-0.0016116	-0.466714	0	
-0.00264827	-0.46543	0	
-0.00386294	-0.463896	0	
-0.00527272	-0.462069	0	
-0.00689611	-0.459904	0	
-0.00875326	-0.457353	0	
-0.0108642	-0.454358	0	
-0.0132412	-0.450849	0	
-0.0158663	-0.44674	0	
-0.0186517	-0.441947	0	
-0.0214115	-0.436456	0	
-0.0239722	-0.430491	0	
-0.0266735	-0.424415	0	
-0.0290377	-0.417464	0	
-0.0284756	-0.409797	0	
-0.0175094	-0.402015	0	
-0.00314942	-0.404346	0	
0.0204781	-0.393215	0	
0.0418313	-0.386878	0	
0.0689268	-0.382466	0	
0.0969653	-0.376946	0	
0.121562	-0.372032	0	
0.143065	-0.368843	0	
0.162644	-0.367458	0	
0.181256	-0.367883	0	
0.199683	-0.370083	0	
0.218504	-0.374065	0	
0.238176	-0.379925	0	
0.259117	-0.387852	0	
0.281768	-0.398127	0	
0.30666	-0.41113	0	
0.334485	-0.427353	0	
0.366194	-0.447404	0	
0.403119	-0.471998	0	
0.447139	-0.50187	0	
0.50076	-0.537518	0	
0.566921	-0.578768	0	
0.648169	-0.624271	0	
0.745301	-0.671583	0	
-0.853334	-0.775123	0	
-0.756482	-0.73008	0	
-0.672316	-0.686354	0	
-0.600652	-0.645698	0	
-0.540104	-0.609323	0	
-0.488753	-0.577739	0	
-0.444693	-0.550899	0	
-0.406307	-0.528445	0	
-0.37232	-0.509905	0	
-0.341755	-0.494808	0	
-0.313861	-0.482736	0	
-0.288037	-0.473338	0	
-0.263772	-0.466336	0	
-0.240582	-0.461521	0	
-0.217958	-0.458743	0	
-0.195312	-0.457885	0	
-0.171959	-0.458809	0	
-0.147144	-0.461271	0	
-0.120319	-0.464679	0	
-0.0919799	-0.468076	0	
-0.063816	-0.471256	0	
-0.0362986	-0.475322	0	
-0.00654508	-0.48107	0	
0.0265804	-0.490841	0	
0.0408526	-0.494813	0	
0.0382347	-0.504582	0	
0.0333572	-0.510449	0	
0.0310556	-0.517706	0	
0.0279564	-0.525096	0	
0.0242579	-0.531537	0	
0.020563	-0.536992	0	
0.0171631	-0.541635	0	
0.0141323	-0.545632	0	
0.0114533	-0.54908	0	
0.00909528	-0.552043	0	
0.00702949	-0.554575	0	
0.00523166	-0.556727	0	
0.0036803	-0.558545	0	
0.00235503	-0.560076	0	
0.00123587	-0.56136	0	
0.000303347	-0.562434	0	
-0.000461318	-0.563331	0	
-0.00107594	-0.564078	0	
-0.00155722	-0.5647	0	
-0.00192066	-0.565217	0	
-0.00218048	-0.565648	0	
-0.0023497	-0.566006	0	
-0.00244007	-0.566304	0	
-0.00246218	-0.566553	0	
-0.00242551	-0.56676	0	
-0.00233851	-0.566932	0	
-0.00220867	-0.567076	0	
-0.00204266	-0.567195	0	
-0.00184635	-0.567293	0	
-0.00162496	-0.567374	0	
-0.00138313	-0.567439	0	
-0.001125	-0.56749	0	
-0.000854318	-0.567529	0	
-0.000574498	-0.567556	0	
-0.000288719	-0.567572	0	
4.73992e-014	-0.567577	0	
0.000288719	-0.567572	0	
0.000574498	-0.567556	0	
0.000854318	-0.567529	0	
0.001125	-0.56749	0	
0.00138313	-0.567439	0	
0.00162496	-0.567374	0	
0.00184635	-0.567293	0	
0.00204266	-0.567195	0	
0.00220867	-0.567076	0	
0.00233851	-0.566932	0	
0.00242551	-0.56676	0	
0.00246218	-0.566553	0	
0.00244007	-0.566304	0	
0.0023497	-0.566006	0	
0.00218048	-0.565648	0	
0.00192066	-0.565217	0	
0.00155722	-0.5647	0	
0.00107594	-0.564078	0	
0.000461318	-0.563331	0	
-0.000303347	-0.562434	0	
-0.00123587	-0.56136	0	
-0.00235503	-0.560076	0	
-0.0036803	-0.558545	0	
-0.00523166	-0.556727	0	
-0.00702949	-0.554575	0	
-0.00909528	-0.552043	0	
-0.0114533	-0.54908	0	
-0.0141323	-0.545632	0	
-0.0171631	-0.541635	0	
-0.020563	-0.536992	0	
-0.0242579	-0.531537	0	
-0.0279564	-0.525096	0	
-0.0310556	-0.517706	0	
-0.0333572	-0.510449	0	
-0.0382347	-0.504582	0	
-0.0408526	-0.494813	0	
-0.0265804	-0.490841	0	
0.00654508	-0.48107	0	
0.0362986	-0.475322	0	
0.063816	-0.471256	0	
0.0919799	-0.468076	0	
0.120319	-0.464679	0	
0.147144	-0.461271	0	
0.171959	-0.458809	0	
0.195312	-0.457885	0	
0.217958	-0.458743	0	
0.240582	-0.461521	0	
0.263772	-0.466336	0	
0.288037	-0.473338	0	
0.313861	-0.482736	0	
0.341755	-0.494808	0	
0.37232	-0.509905	0	
0.406307	-0.528445	0	
0.444693	-0.550899	0	
0.488753	-0.577739	0	
0.540104	-0.609323	0	
0.600652	-0.645698	0	
0.672316	-0.686354	0	
0.756482	-0.73008	0	
0.853334	-0.775123	0	
-0.956598	-0.877434	0	
-0.859594	-0.834277	0	
-0.773113	-0.792203	0	
-0.697191	-0.752499	0	
-0.631055	-0.716182	0	
-0.573453	-0.68385	0	
-0.522992	-0.655693	0	
-0.478357	-0.631618	0	
-0.43842	-0.611366	0	
-0.402254	-0.594619	0	
-0.369103	-0.581051	0	
-0.338342	-0.570362	0	
-0.309425	-0.56229	0	
-0.28184	-0.556605	0	
-0.255071	-0.553101	0	
-0.228569	-0.551564	0	
-0.201761	-0.551726	0	
-0.174129	-0.55318	0	
-0.14543	-0.555354	0	
-0.115888	-0.557703	0	
-0.0859016	-0.560041	0	
-0.0550832	-0.562512	0	
-0.0216618	-0.564973	0	
0.0187934	-0.566197	0	
0.0704841	-0.57339	0	
0.0432785	-0.584623	0	
0.0420587	-0.594229	0	
0.0400466	-0.605533	0	
0.0354473	-0.614654	0	
0.0302944	-0.621864	0	
0.0255135	-0.627761	0	
0.021316	-0.632843	0	
0.017621	-0.637278	0	
0.0143586	-0.64114	0	
0.0114776	-0.644479	0	
0.00894455	-0.647345	0	
0.00673518	-0.649788	0	
0.00482683	-0.65186	0	
0.00319602	-0.653613	0	
0.00181853	-0.655092	0	
0.000670186	-0.656338	0	
-0.000272456	-0.657386	0	
-0.00103163	-0.658268	0	
-0.00162812	-0.65901	0	
-0.00208119	-0.659634	0	
-0.00240847	-0.660159	0	
-0.00262599	-0.660601	0	
-0.00274822	-0.660974	0	
-0.00278815	-0.661289	0	
-0.00275735	-0.661555	0	
-0.00266612	-0.661779	0	
-0.00252356	-0.661969	0	
-0.00233772	-0.662128	0	
-0.00211572	-0.66226	0	
-0.00186382	-0.66237	0	
-0.0015876	-0.662459	0	
-0.00129202	-0.66253	0	
-0.000981538	-0.662584	0	
-0.000660225	-0.662621	0	
-0.000331853	-0.662644	0	
5.67489e-014	-0.662651	0	
0.000331853	-0.662644	0	
0.000660225	-0.662621	0	
0.000981538	-0.662584	0	
0.00129202	-0.66253	0	
0.0015876	-0.662459	0	
0.00186382	-0.66237	0	
0.00211572	-0.66226	0	
0.00233772	-0.662128	0	
0.00252356	-0.661969	0	
0.00266612	-0.661779	0	