# vtk DataFile Version 4.1
vtk output
ASCII
DATASET UNSTRUCTURED_GRID

POINTS	19481	float
0	0	0	
0	1	0	
0	2	0	
0	3	0	
0	4	0	
0	5	0	
0	6	0	
0	7	0	
0	8	0	
0	9	0	
0	10	0	
0	11	0	
0	12	0	
0	13	0	
0	14	0	
0	15	0	
0	16	0	
0	17	0	
0	18	0	
0	19	0	
0	20	0	
0	21	0	
0	22	0	
0	23	0	
0	24	0	
0	25	0	
0	26	0	
0	27	0	
0	28	0	
0	29	0	
0	30	0	
0	31	0	
0	32	0	
0	33	0	
0	34	0	
0	35	0	
0	36	0	
0	37	0	
0	38	0	
0	39	0	
0	40	0	
0	41	0	
0	42	0	
0	43	0	
0	44	0	
0	45	0	
0	46	0	
0	47	0	
0	48	0	
0	49	0	
0	50	0	
0	51	0	
0	52	0	
0	53	0	
0	54	0	
0	55	0	
0	56	0	
0	57	0	
0	58	0	
0	59	0	
0	60	0	
0	61	0	
0	62	0	
0	63	0	
0	64	0	
0	65	0	
0	66	0	
0	67	0	
0	68	0	
0	69	0	
0	70	0	
0	71	0	
0	72	0	
0	73	0	
0	74	0	
0	75	0	
0	76	0	
0	77	0	
0	78	0	
0	79	0	
0	80	0	
0	81	0	
0	82	0	
0	83	0	
0	84	0	
0	85	0	
0	86	0	
0	87	0	
0	88	0	
0	89	0	
0	90	0	
0	91	0	
0	92	0	
0	93	0	
0	94	0	
0	95	0	
0	96	0	
0	97	0	
0	98	0	
0	99	0	
0	100	0	
0	101	0	
0	102	0	
0	103	0	
0	104	0	
0	105	0	
0	106	0	
0	107	0	
0	108	0	
0	109	0	
0	110	0	
0	111	0	
0	112	0	
0	113	0	
0	114	0	
0	115	0	
0	116	0	
0	117	0	
0	118	0	
0	119	0	
0	120	0	
1	0	0	
1	1	0	
1	2	0	
1	3	0	
1	4	0	
1	5	0	
1	6	0	
1	7	0	
1	8	0	
1	9	0	
1	10	0	
1	11	0	
1	12	0	
1	13	0	
1	14	0	
1	15	0	
1	16	0	
1	17	0	
1	18	0	
1	19	0	
1	20	0	
1	21	0	
1	22	0	
1	23	0	
1	24	0	
1	25	0	
1	26	0	
1	27	0	
1	28	0	
1	29	0	
1	30	0	
1	31	0	
1	32	0	
1	33	0	
1	34	0	
1	35	0	
1	36	0	
1	37	0	
1	38	0	
1	39	0	
1	40	0	
1	41	0	
1	42	0	
1	43	0	
1	44	0	
1	45	0	
1	46	0	
1	47	0	
1	48	0	
1	49	0	
1	50	0	
1	51	0	
1	52	0	
1	53	0	
1	54	0	
1	55	0	
1	56	0	
1	57	0	
1	58	0	
1	59	0	
1	60	0	
1	61	0	
1	62	0	
1	63	0	
1	64	0	
1	65	0	
1	66	0	
1	67	0	
1	68	0	
1	69	0	
1	70	0	
1	71	0	
1	72	0	
1	73	0	
1	74	0	
1	75	0	
1	76	0	
1	77	0	
1	78	0	
1	79	0	
1	80	0	
1	81	0	
1	82	0	
1	83	0	
1	84	0	
1	85	0	
1	86	0	
1	87	0	
1	88	0	
1	89	0	
1	90	0	
1	91	0	
1	92	0	
1	93	0	
1	94	0	
1	95	0	
1	96	0	
1	97	0	
1	98	0	
1	99	0	
1	100	0	
1	101	0	
1	102	0	
1	103	0	
1	104	0	
1	105	0	
1	106	0	
1	107	0	
1	108	0	
1	109	0	
1	110	0	
1	111	0	
1	112	0	
1	113	0	
1	114	0	
1	115	0	
1	116	0	
1	117	0	
1	118	0	
1	119	0	
1	120	0	
2	0	0	
2	1	0	
2	2	0	
2	3	0	
2	4	0	
2	5	0	
2	6	0	
2	7	0	
2	8	0	
2	9	0	
2	10	0	
2	11	0	
2	12	0	
2	13	0	
2	14	0	
2	15	0	
2	16	0	
2	17	0	
2	18	0	
2	19	0	
2	20	0	
2	21	0	
2	22	0	
2	23	0	
2	24	0	
2	25	0	
2	26	0	
2	27	0	
2	28	0	
2	29	0	
2	30	0	
2	31	0	
2	32	0	
2	33	0	
2	34	0	
2	35	0	
2	36	0	
2	37	0	
2	38	0	
2	39	0	
2	40	0	
2	41	0	
2	42	0	
2	43	0	
2	44	0	
2	45	0	
2	46	0	
2	47	0	
2	48	0	
2	49	0	
2	50	0	
2	51	0	
2	52	0	
2	53	0	
2	54	0	
2	55	0	
2	56	0	
2	57	0	
2	58	0	
2	59	0	
2	60	0	
2	61	0	
2	62	0	
2	63	0	
2	64	0	
2	65	0	
2	66	0	
2	67	0	
2	68	0	
2	69	0	
2	70	0	
2	71	0	
2	72	0	
2	73	0	
2	74	0	
2	75	0	
2	76	0	
2	77	0	
2	78	0	
2	79	0	
2	80	0	
2	81	0	
2	82	0	
2	83	0	
2	84	0	
2	85	0	
2	86	0	
2	87	0	
2	88	0	
2	89	0	
2	90	0	
2	91	0	
2	92	0	
2	93	0	
2	94	0	
2	95	0	
2	96	0	
2	97	0	
2	98	0	
2	99	0	
2	100	0	
2	101	0	
2	102	0	
2	103	0	
2	104	0	
2	105	0	
2	106	0	
2	107	0	
2	108	0	
2	109	0	
2	110	0	
2	111	0	
2	112	0	
2	113	0	
2	114	0	
2	115	0	
2	116	0	
2	117	0	
2	118	0	
2	119	0	
2	120	0	
3	0	0	
3	1	0	
3	2	0	
3	3	0	
3	4	0	
3	5	0	
3	6	0	
3	7	0	
3	8	0	
3	9	0	
3	10	0	
3	11	0	
3	12	0	
3	13	0	
3	14	0	
3	15	0	
3	16	0	
3	17	0	
3	18	0	
3	19	0	
3	20	0	
3	21	0	
3	22	0	
3	23	0	
3	24	0	
3	25	0	
3	26	0	
3	27	0	
3	28	0	
3	29	0	
3	30	0	
3	31	0	
3	32	0	
3	33	0	
3	34	0	
3	35	0	
3	36	0	
3	37	0	
3	38	0	
3	39	0	
3	40	0	
3	41	0	
3	42	0	
3	43	0	
3	44	0	
3	45	0	
3	46	0	
3	47	0	
3	48	0	
3	49	0	
3	50	0	
3	51	0	
3	52	0	
3	53	0	
3	54	0	
3	55	0	
3	56	0	
3	57	0	
3	58	0	
3	59	0	
3	60	0	
3	61	0	
3	62	0	
3	63	0	
3	64	0	
3	65	0	
3	66	0	
3	67	0	
3	68	0	
3	69	0	
3	70	0	
3	71	0	
3	72	0	
3	73	0	
3	74	0	
3	75	0	
3	76	0	
3	77	0	
3	78	0	
3	79	0	
3	80	0	
3	81	0	
3	82	0	
3	83	0	
3	84	0	
3	85	0	
3	86	0	
3	87	0	
3	88	0	
3	89	0	
3	90	0	
3	91	0	
3	92	0	
3	93	0	
3	94	0	
3	95	0	
3	96	0	
3	97	0	
3	98	0	
3	99	0	
3	100	0	
3	101	0	
3	102	0	
3	103	0	
3	104	0	
3	105	0	
3	106	0	
3	107	0	
3	108	0	
3	109	0	
3	110	0	
3	111	0	
3	112	0	
3	113	0	
3	114	0	
3	115	0	
3	116	0	
3	117	0	
3	118	0	
3	119	0	
3	120	0	
4	0	0	
4	1	0	
4	2	0	
4	3	0	
4	4	0	
4	5	0	
4	6	0	
4	7	0	
4	8	0	
4	9	0	
4	10	0	
4	11	0	
4	12	0	
4	13	0	
4	14	0	
4	15	0	
4	16	0	
4	17	0	
4	18	0	
4	19	0	
4	20	0	
4	21	0	
4	22	0	
4	23	0	
4	24	0	
4	25	0	
4	26	0	
4	27	0	
4	28	0	
4	29	0	
4	30	0	
4	31	0	
4	32	0	
4	33	0	
4	34	0	
4	35	0	
4	36	0	
4	37	0	
4	38	0	
4	39	0	
4	40	0	
4	41	0	
4	42	0	
4	43	0	
4	44	0	
4	45	0	
4	46	0	
4	47	0	
4	48	0	
4	49	0	
4	50	0	
4	51	0	
4	52	0	
4	53	0	
4	54	0	
4	55	0	
4	56	0	
4	57	0	
4	58	0	
4	59	0	
4	60	0	
4	61	0	
4	62	0	
4	63	0	
4	64	0	
4	65	0	
4	66	0	
4	67	0	
4	68	0	
4	69	0	
4	70	0	
4	71	0	
4	72	0	
4	73	0	
4	74	0	
4	75	0	
4	76	0	
4	77	0	
4	78	0	
4	79	0	
4	80	0	
4	81	0	
4	82	0	
4	83	0	
4	84	0	
4	85	0	
4	86	0	
4	87	0	
4	88	0	
4	89	0	
4	90	0	
4	91	0	
4	92	0	
4	93	0	
4	94	0	
4	95	0	
4	96	0	
4	97	0	
4	98	0	
4	99	0	
4	100	0	
4	101	0	
4	102	0	
4	103	0	
4	104	0	
4	105	0	
4	106	0	
4	107	0	
4	108	0	
4	109	0	
4	110	0	
4	111	0	
4	112	0	
4	113	0	
4	114	0	
4	115	0	
4	116	0	
4	117	0	
4	118	0	
4	119	0	
4	120	0	
5	0	0	
5	1	0	
5	2	0	
5	3	0	
5	4	0	
5	5	0	
5	6	0	
5	7	0	
5	8	0	
5	9	0	
5	10	0	
5	11	0	
5	12	0	
5	13	0	
5	14	0	
5	15	0	
5	16	0	
5	17	0	
5	18	0	
5	19	0	
5	20	0	
5	21	0	
5	22	0	
5	23	0	
5	24	0	
5	25	0	
5	26	0	
5	27	0	
5	28	0	
5	29	0	
5	30	0	
5	31	0	
5	32	0	
5	33	0	
5	34	0	
5	35	0	
5	36	0	
5	37	0	
5	38	0	
5	39	0	
5	40	0	
5	41	0	
5	42	0	
5	43	0	
5	44	0	
5	45	0	
5	46	0	
5	47	0	
5	48	0	
5	49	0	
5	50	0	
5	51	0	
5	52	0	
5	53	0	
5	54	0	
5	55	0	
5	56	0	
5	57	0	
5	58	0	
5	59	0	
5	60	0	
5	61	0	
5	62	0	
5	63	0	
5	64	0	
5	65	0	
5	66	0	
5	67	0	
5	68	0	
5	69	0	
5	70	0	
5	71	0	
5	72	0	
5	73	0	
5	74	0	
5	75	0	
5	76	0	
5	77	0	
5	78	0	
5	79	0	
5	80	0	
5	81	0	
5	82	0	
5	83	0	
5	84	0	
5	85	0	
5	86	0	
5	87	0	
5	88	0	
5	89	0	
5	90	0	
5	91	0	
5	92	0	
5	93	0	
5	94	0	
5	95	0	
5	96	0	
5	97	0	
5	98	0	
5	99	0	
5	100	0	
5	101	0	
5	102	0	
5	103	0	
5	104	0	
5	105	0	
5	106	0	
5	107	0	
5	108	0	
5	109	0	
5	110	0	
5	111	0	
5	112	0	
5	113	0	
5	114	0	
5	115	0	
5	116	0	
5	117	0	
5	118	0	
5	119	0	
5	120	0	
6	0	0	
6	1	0	
6	2	0	
6	3	0	
6	4	0	
6	5	0	
6	6	0	
6	7	0	
6	8	0	
6	9	0	
6	10	0	
6	11	0	
6	12	0	
6	13	0	
6	14	0	
6	15	0	
6	16	0	
6	17	0	
6	18	0	
6	19	0	
6	20	0	
6	21	0	
6	22	0	
6	23	0	
6	24	0	
6	25	0	
6	26	0	
6	27	0	
6	28	0	
6	29	0	
6	30	0	
6	31	0	
6	32	0	
6	33	0	
6	34	0	
6	35	0	
6	36	0	
6	37	0	
6	38	0	
6	39	0	
6	40	0	
6	41	0	
6	42	0	
6	43	0	
6	44	0	
6	45	0	
6	46	0	
6	47	0	
6	48	0	
6	49	0	
6	50	0	
6	51	0	
6	52	0	
6	53	0	
6	54	0	
6	55	0	
6	56	0	
6	57	0	
6	58	0	
6	59	0	
6	60	0	
6	61	0	
6	62	0	
6	63	0	
6	64	0	
6	65	0	
6	66	0	
6	67	0	
6	68	0	
6	69	0	
6	70	0	
6	71	0	
6	72	0	
6	73	0	
6	74	0	
6	75	0	
6	76	0	
6	77	0	
6	78	0	
6	79	0	
6	80	0	
6	81	0	
6	82	0	
6	83	0	
6	84	0	
6	85	0	
6	86	0	
6	87	0	
6	88	0	
6	89	0	
6	90	0	
6	91	0	
6	92	0	
6	93	0	
6	94	0	
6	95	0	
6	96	0	
6	97	0	
6	98	0	
6	99	0	
6	100	0	
6	101	0	
6	102	0	
6	103	0	
6	104	0	
6	105	0	
6	106	0	
6	107	0	
6	108	0	
6	109	0	
6	110	0	
6	111	0	
6	112	0	
6	113	0	
6	114	0	
6	115	0	
6	116	0	
6	117	0	
6	118	0	
6	119	0	
6	120	0	
7	0	0	
7	1	0	
7	2	0	
7	3	0	
7	4	0	
7	5	0	
7	6	0	
7	7	0	
7	8	0	
7	9	0	
7	10	0	
7	11	0	
7	12	0	
7	13	0	
7	14	0	
7	15	0	
7	16	0	
7	17	0	
7	18	0	
7	19	0	
7	20	0	
7	21	0	
7	22	0	
7	23	0	
7	24	0	
7	25	0	
7	26	0	
7	27	0	
7	28	0	
7	29	0	
7	30	0	
7	31	0	
7	32	0	
7	33	0	
7	34	0	
7	35	0	
7	36	0	
7	37	0	
7	38	0	
7	39	0	
7	40	0	
7	41	0	
7	42	0	
7	43	0	
7	44	0	
7	45	0	
7	46	0	
7	47	0	
7	48	0	
7	49	0	
7	50	0	
7	51	0	
7	52	0	
7	53	0	
7	54	0	
7	55	0	
7	56	0	
7	57	0	
7	58	0	
7	59	0	
7	60	0	
7	61	0	
7	62	0	
7	63	0	
7	64	0	
7	65	0	
7	66	0	
7	67	0	
7	68	0	
7	69	0	
7	70	0	
7	71	0	
7	72	0	
7	73	0	
7	74	0	
7	75	0	
7	76	0	
7	77	0	
7	78	0	
7	79	0	
7	80	0	
7	81	0	
7	82	0	
7	83	0	
7	84	0	
7	85	0	
7	86	0	
7	87	0	
7	88	0	
7	89	0	
7	90	0	
7	91	0	
7	92	0	
7	93	0	
7	94	0	
7	95	0	
7	96	0	
7	97	0	
7	98	0	
7	99	0	
7	100	0	
7	101	0	
7	102	0	
7	103	0	
7	104	0	
7	105	0	
7	106	0	
7	107	0	
7	108	0	
7	109	0	
7	110	0	
7	111	0	
7	112	0	
7	113	0	
7	114	0	
7	115	0	
7	116	0	
7	117	0	
7	118	0	
7	119	0	
7	120	0	
8	0	0	
8	1	0	
8	2	0	
8	3	0	
8	4	0	
8	5	0	
8	6	0	
8	7	0	
8	8	0	
8	9	0	
8	10	0	
8	11	0	
8	12	0	
8	13	0	
8	14	0	
8	15	0	
8	16	0	
8	17	0	
8	18	0	
8	19	0	
8	20	0	
8	21	0	
8	22	0	
8	23	0	
8	24	0	
8	25	0	
8	26	0	
8	27	0	
8	28	0	
8	29	0	
8	30	0	
8	31	0	
8	32	0	
8	33	0	
8	34	0	
8	35	0	
8	36	0	
8	37	0	
8	38	0	
8	39	0	
8	40	0	
8	41	0	
8	42	0	
8	43	0	
8	44	0	
8	45	0	
8	46	0	
8	47	0	
8	48	0	
8	49	0	
8	50	0	
8	51	0	
8	52	0	
8	53	0	
8	54	0	
8	55	0	
8	56	0	
8	57	0	
8	58	0	
8	59	0	
8	60	0	
8	61	0	
8	62	0	
8	63	0	
8	64	0	
8	65	0	
8	66	0	
8	67	0	
8	68	0	
8	69	0	
8	70	0	
8	71	0	
8	72	0	
8	73	0	
8	74	0	
8	75	0	
8	76	0	
8	77	0	
8	78	0	
8	79	0	
8	80	0	
8	81	0	
8	82	0	
8	83	0	
8	84	0	
8	85	0	
8	86	0	
8	87	0	
8	88	0	
8	89	0	
8	90	0	
8	91	0	
8	92	0	
8	93	0	
8	94	0	
8	95	0	
8	96	0	
8	97	0	
8	98	0	
8	99	0	
8	100	0	
8	101	0	
8	102	0	
8	103	0	
8	104	0	
8	105	0	
8	106	0	
8	107	0	
8	108	0	
8	109	0	
8	110	0	
8	111	0	
8	112	0	
8	113	0	
8	114	0	
8	115	0	
8	116	0	
8	117	0	
8	118	0	
8	119	0	
8	120	0	
9	0	0	
9	1	0	
9	2	0	
9	3	0	
9	4	0	
9	5	0	
9	6	0	
9	7	0	
9	8	0	
9	9	0	
9	10	0	
9	11	0	
9	12	0	
9	13	0	
9	14	0	
9	15	0	
9	16	0	
9	17	0	
9	18	0	
9	19	0	
9	20	0	
9	21	0	
9	22	0	
9	23	0	
9	24	0	
9	25	0	
9	26	0	
9	27	0	
9	28	0	
9	29	0	
9	30	0	
9	31	0	
9	32	0	
9	33	0	
9	34	0	
9	35	0	
9	36	0	
9	37	0	
9	38	0	
9	39	0	
9	40	0	
9	41	0	
9	42	0	
9	43	0	
9	44	0	
9	45	0	
9	46	0	
9	47	0	
9	48	0	
9	49	0	
9	50	0	
9	51	0	
9	52	0	
9	53	0	
9	54	0	
9	55	0	
9	56	0	
9	57	0	
9	58	0	
9	59	0	
9	60	0	
9	61	0	
9	62	0	
9	63	0	
9	64	0	
9	65	0	
9	66	0	
9	67	0	
9	68	0	
9	69	0	
9	70	0	
9	71	0	
9	72	0	
9	73	0	
9	74	0	
9	75	0	
9	76	0	
9	77	0	
9	78	0	
9	79	0	
9	80	0	
9	81	0	
9	82	0	
9	83	0	
9	84	0	
9	85	0	
9	86	0	
9	87	0	
9	88	0	
9	89	0	
9	90	0	
9	91	0	
9	92	0	
9	93	0	
9	94	0	
9	95	0	
9	96	0	
9	97	0	
9	98	0	
9	99	0	
9	100	0	
9	101	0	
9	102	0	
9	103	0	
9	104	0	
9	105	0	
9	106	0	
9	107	0	
9	108	0	
9	109	0	
9	110	0	
9	111	0	
9	112	0	
9	113	0	
9	114	0	
9	115	0	
9	116	0	
9	117	0	
9	118	0	
9	119	0	
9	120	0	
10	0	0	
10	1	0	
10	2	0	
10	3	0	
10	4	0	
10	5	0	
10	6	0	
10	7	0	
10	8	0	
10	9	0	
10	10	0	
10	11	0	
10	12	0	
10	13	0	
[...]
POINT_DATA	19481
VECTORS u float
0	0	0	
0	0	0	
0	0	0	
0	0	0	
0	0	0	
0	0	0	
0	0	0	
0	0	0	
0	0	0	
0	0	0	
0	0	0	
0	0	0	
0	0	0	
0	0	0	
0	0	0	
0	0	0	
0	0	0	
0	0	0	
0	0	0	
0	0	0	
0	0	0	
0	0	0	
0	0	0	
0	0	0	
0	0	0	
0	0	0	
0	0	0	
0	0	0	
0	0	0	
0	0	0	
0	0	0	
0	0	0	
0	0	0	
0	0	0	
0	0	0	
0	0	0	
0	0	0	
0	0	0	
0	0	0	
0	0	0	
0	0	0	
0	0	0	
0	0	0	
0	0	0	
0	0	0	
0	0	0	
0	0	0	
0	0	0	
0	0	0	
0	0	0	
0	0	0	
0	0	0	
0	0	0	
0	0	0	
0	0	0	
0	0	0	
0	0	0	
0	0	0	
0	0	0	
0	0	0	
0	0	0	
0	0	0	
0	0	0	
0	0	0	
0	0	0	
0	0	0	
0	0	0	
0	0	0	
0	0	0	
0	0	0	
0	0	0	
0	0	0	
0	0	0	
0	0	0	
0	0	0	
0	0	0	
0	0	0	
0	0	0	
0	0	0	
0	0	0	
0	0	0	
0	0	0	
0	0	0	
0	0	0	
0	0	0	
0	0	0	
0	0	0	
0	0	0	
0	0	0	
0	0	0	
0	0	0	
0	0	0	
0	0	0	
0	0	0	
0	0	0	
0	0	0	
0	0	0	
0	0	0	
0	0	0	
0	0	0	
0	0	0	
0	0	0	
0	0	0	
0	0	0	
0	0	0	
0	0	0	
0	0	0	
0	0	0	
0	0	0	
0	0	0	
0	0	0	
0	0	0	
0	0	0	
0	0	0	
0	0	0	
0	0	0	
0	0	0	
0	0	0	
0	0	0	
0	0	0	
0	0	0	
-0.208638	-0.198469	0	
-0.123804	-0.131775	0	
-0.101398	-0.105027	0	
-0.0876675	-0.0908266	0	
-0.07856	-0.0818117	0	
-0.0715959	-0.0755724	0	
-0.0659231	-0.0710121	0	
-0.0610818	-0.067575	0	
-0.0568198	-0.0649393	0	
-0.0529809	-0.0629023	0	
-0.0494615	-0.0613252	0	
-0.046188	-0.060105	0	
-0.0431024	-0.0591576	0	
-0.0401536	-0.0584054	0	
-0.0372881	-0.0577677	0	
-0.0344347	-0.0571465	0	
-0.0314817	-0.0564138	0	
-0.0281177	-0.0553981	0	
-0.0237866	-0.0541266	0	
-0.0129486	-0.0539747	0	
0.0083048	-0.0612096	0	
-0.00893939	-0.0641624	0	
-0.00743284	-0.0650746	0	
-0.00557098	-0.0683594	0	
-0.00526347	-0.070809	0	
-0.00481306	-0.0724133	0	
-0.00405175	-0.0737864	0	
-0.0032316	-0.0752481	0	
-0.00254828	-0.0767623	0	
-0.00203367	-0.0782183	0	
-0.00165574	-0.0795465	0	
-0.00137455	-0.0807237	0	
-0.00115939	-0.0817551	0	
-0.000990957	-0.0826567	0	
-0.000857691	-0.0834459	0	
-0.0007522	-0.0841371	0	
-0.000669039	-0.0847422	0	
-0.000603758	-0.085271	0	
-0.000552573	-0.0857318	0	
-0.000512266	-0.0861322	0	
-0.000480136	-0.0864789	0	
-0.000453943	-0.0867779	0	
-0.00043186	-0.0870349	0	
-0.000412419	-0.087255	0	
-0.000394458	-0.0874428	0	
-0.000377077	-0.0876024	0	
-0.000359593	-0.0877375	0	
-0.000341502	-0.0878515	0	
-0.000322447	-0.0879471	0	
-0.000302187	-0.0880269	0	
-0.000280581	-0.0880933	0	
-0.000257562	-0.088148	0	
-0.000233132	-0.0881929	0	
-0.000207341	-0.0882294	0	
-0.000180283	-0.0882587	0	
-0.000152085	-0.0882818	0	
-0.000122901	-0.0882996	0	
-9.29046e-005	-0.0883127	0	
-6.22871e-005	-0.0883218	0	
-3.12495e-005	-0.0883271	0	
8.06936e-015	-0.0883288	0	
3.12495e-005	-0.0883271	0	
6.22871e-005	-0.0883218	0	
9.29046e-005	-0.0883127	0	
0.000122901	-0.0882996	0	
0.000152085	-0.0882818	0	
0.000180283	-0.0882587	0	
0.000207341	-0.0882294	0	
0.000233132	-0.0881929	0	
0.000257562	-0.088148	0	
0.000280581	-0.0880933	0	
0.000302187	-0.0880269	0	
0.000322447	-0.0879471	0	
0.000341502	-0.0878515	0	
0.000359593	-0.0877375	0	
0.000377077	-0.0876024	0	
0.000394458	-0.0874428	0	
0.000412419	-0.087255	0	
0.00043186	-0.0870349	0	
0.000453943	-0.0867779	0	
0.000480136	-0.0864789	0	
0.000512266	-0.0861322	0	
0.000552573	-0.0857318	0	
0.000603758	-0.085271	0	
0.000669039	-0.0847422	0	
0.0007522	-0.0841371	0	
0.000857691	-0.0834459	0	
0.000990957	-0.0826567	0	
0.00115939	-0.0817551	0	
0.00137455	-0.0807237	0	
0.00165574	-0.0795465	0	
0.00203367	-0.0782183	0	
0.00254828	-0.0767623	0	
0.0032316	-0.0752481	0	
0.00405175	-0.0737864	0	
0.00481306	-0.0724133	0	
0.00526347	-0.070809	0	
0.00557098	-0.0683594	0	
0.00743284	-0.0650746	0	
0.00893939	-0.0641624	0	
-0.0083048	-0.0612096	0	
0.0129486	-0.0539747	0	
0.0237866	-0.0541266	0	
0.0281177	-0.0553981	0	
0.0314817	-0.0564138	0	
0.0344347	-0.0571465	0	
0.0372881	-0.0577677	0	
0.0401536	-0.0584054	0	
0.0431024	-0.0591576	0	
0.046188	-0.060105	0	
0.0494615	-0.0613252	0	
0.0529809	-0.0629023	0	
0.0568198	-0.0649393	0	
0.0610818	-0.067575	0	
0.0659231	-0.0710121	0	
0.0715959	-0.0755724	0	
0.07856	-0.0818117	0	
0.0876675	-0.0908266	0	
0.101398	-0.105027	0	
0.123804	-0.131775	0	
0.208638	-0.198469	0	
-0.361089	-0.32427	0	
-0.265181	-0.2694	0	
-0.212227	-0.22426	0	
-0.182606	-0.195529	0	
-0.162273	-0.176097	0	
-0.147032	-0.162278	0	
-0.13476	-0.152064	0	
-0.12441	-0.14432	0	
-0.115384	-0.138359	0	
-0.107318	-0.133738	0	
-0.0999719	-0.130156	0	
-0.09318	-0.127396	0	
-0.0868149	-0.125292	0	
-0.0807682	-0.123707	0	
-0.0749298	-0.122527	0	
-0.0691608	-0.121653	0	
-0.0632194	-0.121022	0	
-0.0566485	-0.120646	0	
-0.0477972	-0.120671	0	
-0.0342573	-0.119812	0	
0.00540163	-0.110842	0	
-0.0174191	-0.122658	0	
-0.0101801	-0.134487	0	
-0.00933011	-0.140946	0	
-0.00974536	-0.144358	0	
-0.00887812	-0.146748	0	
-0.00708635	-0.149408	0	
-0.00536351	-0.152314	0	
-0.00404364	-0.155192	0	
-0.00311511	-0.157876	0	
-0.00247285	-0.16029	0	
-0.00201517	-0.162428	0	
-0.00167534	-0.164312	0	
-0.00141599	-0.165972	0	
-0.00121705	-0.167436	0	
-0.001066	-0.168727	0	
-0.000953325	-0.169863	0	
-0.000870885	-0.17086	0	
-0.00081162	-0.171732	0	
-0.000769504	-0.172492	0	
-0.000739494	-0.173152	0	
-0.000717456	-0.173723	0	
-0.000700064	-0.174216	0	
-0.000684703	-0.17464	0	
-0.000669363	-0.175002	0	
-0.000652547	-0.175311	0	
-0.000633173	-0.175574	0	
-0.000610498	-0.175796	0	
-0.00058405	-0.175984	0	
-0.000553573	-0.176141	0	
-0.000518985	-0.176272	0	
-0.000480341	-0.176381	0	
-0.000437808	-0.176471	0	
-0.000391642	-0.176544	0	
-0.00034217	-0.176603	0	
-0.000289777	-0.176649	0	
-0.000234891	-0.176685	0	
-0.000177975	-0.176712	0	
-0.000119516	-0.176731	0	
-6.00186e-005	-0.176741	0	
1.64625e-014	-0.176745	0	
6.00186e-005	-0.176741	0	
0.000119516	-0.176731	0	
0.000177975	-0.176712	0	
0.000234891	-0.176685	0	
0.000289777	-0.176649	0	
0.00034217	-0.176603	0	
0.000391642	-0.176544	0	
0.000437808	-0.176471	0	
0.000480341	-0.176381	0	
0.000518985	-0.176272	0	
0.000553573	-0.176141	0	
0.00058405	-0.175984	0	
0.000610498	-0.175796	0	
0.000633173	-0.175574	0	
0.000652547	-0.175311	0	
0.000669363	-0.175002	0	
0.000684703	-0.17464	0	
0.000700064	-0.174216	0	
0.000717456	-0.173723	0	
0.000739494	-0.173152	0	
0.000769504	-0.172492	0	
0.00081162	-0.171732	0	
0.000870885	-0.17086	0	
0.000953325	-0.169863	0	
0.001066	-0.168727	0	
0.00121705	-0.167436	0	
0.00141599	-0.165972	0	
0.00167534	-0.164312	0	
0.00201517	-0.162428	0	
0.00247285	-0.16029	0	
0.00311511	-0.157876	0	
0.00404364	-0.155192	0	
0.00536351	-0.152314	0	
0.00708635	-0.149408	0	
0.00887812	-0.146748	0	
0.00974536	-0.144358	0	
0.00933011	-0.140946	0	
0.0101801	-0.134487	0	
0.0174191	-0.122658	0	
-0.00540163	-0.110842	0	
0.0342573	-0.119812	0	
0.0477972	-0.120671	0	
0.0566485	-0.120646	0	
0.0632194	-0.121022	0	
0.0691608	-0.121653	0	
0.0749298	-0.122527	0	
0.0807682	-0.123707	0	
0.0868149	-0.125292	0	
0.09318	-0.127396	0	
0.0999719	-0.130156	0	
0.107318	-0.133738	0	
0.115384	-0.138359	0	
0.12441	-0.14432	0	
0.13476	-0.152064	0	
0.147032	-0.162278	0	
0.162273	-0.176097	0	
0.182606	-0.195529	0	
0.212227	-0.22426	0	
0.265181	-0.2694	0	
0.361089	-0.32427	0	
-0.489106	-0.439173	0	
-0.393962	-0.387579	0	
-0.327443	-0.341369	0	
-0.282399	-0.304547	0	
-0.250509	-0.277063	0	
-0.226179	-0.25639	0	
-0.206591	-0.240613	0	
-0.190131	-0.228409	0	
-0.175851	-0.21889	0	
-0.163154	-0.211444	0	
-0.151647	-0.205643	0	
-0.141054	-0.201175	0	
-0.131165	-0.197807	0	
-0.1218	-0.195366	0	
-0.112781	-0.193731	0	
-0.103876	-0.192837	0	
-0.0947261	-0.192713	0	
-0.0845949	-0.19355	0	
-0.0722666	-0.195671	0	
-0.0543506	-0.20032	0	
-0.0320553	-0.206419	0	
-0.0279174	-0.217873	0	
-0.010268	-0.213648	0	
-0.0131358	-0.21788	0	
-0.0148516	-0.21965	0	
-0.0122165	-0.222804	0	
-0.00897369	-0.22706	0	
-0.00638281	-0.231407	0	
-0.00457079	-0.23549	0	
-0.00338469	-0.239158	0	
-0.00260024	-0.242404	0	
-0.00205504	-0.245271	0	
-0.00165703	-0.247815	0	
-0.00136244	-0.25008	0	
-0.00114837	-0.252095	0	
-0.00099898	-0.253884	0	
-0.000900661	-0.255467	0	
-0.000841355	-0.256861	0	
-0.00081064	-0.258085	0	
-0.00079975	-0.259155	0	
-0.000801465	-0.260088	0	
-0.000809959	-0.260898	0	
-0.000820639	-0.261598	0	
-0.000829987	-0.262201	0	
-0.000835398	-0.26272	0	
-0.000835022	-0.263164	0	
-0.000827617	-0.263542	0	
-0.000812424	-0.263863	0	
-0.00078906	-0.264135	0	
-0.00075744	-0.264364	0	
-0.000717713	-0.264555	0	
-0.000670208	-0.264715	0	
-0.000615404	-0.264847	0	
-0.000553891	-0.264955	0	
-0.000486355	-0.265042	0	
-0.000413548	-0.265111	0	
-0.000336282	-0.265165	0	
-0.000255405	-0.265205	0	
-0.000171797	-0.265233	0	
-8.63576e-005	-0.265249	0	
2.51596e-014	-0.265255	0	
8.63576e-005	-0.265249	0	
0.000171797	-0.265233	0	
0.000255405	-0.265205	0	
0.000336282	-0.265165	0	
0.000413548	-0.265111	0	
0.000486355	-0.265042	0	
0.000553891	-0.264955	0	
0.000615404	-0.264847	0	
0.000670208	-0.264715	0	
0.000717713	-0.264555	0	
0.00075744	-0.264364	0	
0.00078906	-0.264135	0	
0.000812424	-0.263863	0	
0.000827617	-0.263542	0	
0.000835022	-0.263164	0	
0.000835398	-0.26272	0	
0.000829987	-0.262201	0	
0.000820639	-0.261598	0	
0.000809959	-0.260898	0	
0.000801465	-0.260088	0	
0.00079975	-0.259155	0	
0.00081064	-0.258085	0	
0.000841355	-0.256861	0	
0.000900661	-0.255467	0	
0.00099898	-0.253884	0	
0.00114837	-0.252095	0	
0.00136244	-0.25008	0	
0.00165703	-0.247815	0	
0.00205504	-0.245271	0	
0.00260024	-0.242404	0	
0.00338469	-0.239158	0	
0.00457079	-0.23549	0	
0.00638281	-0.231407	0	
0.00897369	-0.22706	0	
0.0122165	-0.222804	0	
0.0148516	-0.21965	0	
0.0131358	-0.21788	0	
0.010268	-0.213648	0	
0.0279174	-0.217873	0	
0.0320553	-0.206419	0	
0.0543506	-0.20032	0	
0.0722666	-0.195671	0	
0.0845949	-0.19355	0	
0.0947261	-0.192713	0	
0.103876	-0.192837	0	
0.112781	-0.193731	0	
0.1218	-0.195366	0	
0.131165	-0.197807	0	
0.141054	-0.201175	0	
0.151647	-0.205643	0	
0.163154	-0.211444	0	
0.175851	-0.21889	0	
0.190131	-0.228409	0	
0.206591	-0.240613	0	
0.226179	-0.25639	0	
0.250509	-0.277063	0	
0.282399	-0.304547	0	
0.327443	-0.341369	0	
0.393962	-0.387579	0	
0.489106	-0.439173	0	
-0.605619	-0.544874	0	
-0.512066	-0.49697	0	
-0.438815	-0.451643	0	
-0.383406	-0.412395	0	
-0.341195	-0.380223	0	
-0.308003	-0.354544	0	
-0.280884	-0.334146	0	
-0.257982	-0.317934	0	
-0.238097	-0.305046	0	
-0.220438	-0.29483	0	
-0.204467	-0.286799	0	
-0.189796	-0.280588	0	
-0.176126	-0.275926	0	
-0.163203	-0.272617	0	
-0.150768	-0.270529	0	
-0.138506	-0.269605	0	
-0.12595	-0.269866	0	
-0.112374	-0.271377	0	
-0.0965116	-0.274175	0	
-0.0771938	-0.277102	0	
-0.0570017	-0.277835	0	
-0.035754	-0.277341	0	
-0.000675707	-0.285772	0	
-0.0214003	-0.291621	0	
-0.0197605	-0.295071	0	
-0.0141484	-0.301353	0	
-0.00958533	-0.307361	0	
-0.00631735	-0.312948	0	
-0.00427442	-0.31789	0	
-0.00302258	-0.322203	0	
-0.00221315	-0.325972	0	
-0.00163863	-0.329324	0	
-0.00121844	-0.33234	0	
-0.000921072	-0.335061	0	
-0.000726506	-0.337505	0	
-0.000614373	-0.339689	0	
-0.000565083	-0.34163	0	
-0.000561495	-0.343347	0	
-0.000589348	-0.344858	0	
-0.000637007	-0.346184	0	
-0.000695089	-0.347342	0	
-0.000756163	-0.34835	0	
-0.000814513	-0.349225	0	
-0.000865902	-0.349981	0	
-0.00090733	-0.350632	0	
-0.000936804	-0.351191	0	
-0.000953117	-0.351669	0	
-0.000955677	-0.352076	0	
-0.000944357	-0.352422	0	
-0.000919394	-0.352714	0	
-0.000881301	-0.352959	0	
-0.00083081	-0.353164	0	
-0.000768824	-0.353334	0	
-0.00069638	-0.353474	0	
-0.000614618	-0.353587	0	
-0.000524758	-0.353678	0	
-0.000428078	-0.353748	0	
-0.000325902	-0.3538	0	
-0.00021958	-0.353837	0	
-0.000110485	-0.353858	0	
3.41693e-014	-0.353865	0	
0.000110485	-0.353858	0	
0.00021958	-0.353837	0	
0.000325902	-0.3538	0	
0.000428078	-0.353748	0	
0.000524758	-0.353678	0	
0.000614618	-0.353587	0	
0.00069638	-0.353474	0	
0.000768824	-0.353334	0	
0.00083081	-0.353164	0	
0.000881301	-0.352959	0	
0.000919394	-0.352714	0	
0.000944357	-0.352422	0	
0.000955677	-0.352076	0	
0.000953117	-0.351669	0	
0.000936804	-0.351191	0	
0.00090733	-0.350632	0	
0.000865902	-0.349981	0	
0.000814513	-0.349225	0	
0.000756163	-0.34835	0	
0.000695089	-0.347342	0	
0.000637007	-0.346184	0	
0.000589348	-0.344858	0	
0.000561495	-0.343347	0	
0.000565083	-0.34163	0	
0.000614373	-0.339689	0	
0.000726506	-0.337505	0	
0.000921072	-0.335061	0	
0.00121844	-0.33234	0	
0.00163863	-0.329324	0	
0.00221315	-0.325972	0	
0.00302258	-0.322203	0	
0.00427442	-0.31789	0	
0.00631735	-0.312948	0	
0.00958533	-0.307361	0	
0.0141484	-0.301353	0	
0.0197605	-0.295071	0	
0.0214003	-0.291621	0	
0.000675707	-0.285772	0	
0.035754	-0.277341	0	
0.0570017	-0.277835	0	
0.0771938	-0.277102	0	
0.0965116	-0.274175	0	
0.112374	-0.271377	0	
0.12595	-0.269866	0	
0.138506	-0.269605	0	
0.150768	-0.270529	0	
0.163203	-0.272617	0	
0.176126	-0.275926	0	
0.189796	-0.280588	0	
0.204467	-0.286799	0	
0.220438	-0.29483	0	
0.238097	-0.305046	0	
0.257982	-0.317934	0	
0.280884	-0.334146	0	
0.308003	-0.354544	0	
0.341195	-0.380223	0	
0.383406	-0.412395	0	
0.438815	-0.451643	0	
0.512066	-0.49697	0	
0.605619	-0.544874	0	
-0.714389	-0.645983	0	
-0.622048	-0.600762	0	
-0.545053	-0.557144	0	
-0.48261	-0.517523	0	
-0.432242	-0.483221	0	
-0.391099	-0.454419	0	
-0.356759	-0.430649	0	
-0.327412	-0.41121	0	
-0.301779	-0.395425	0	
-0.278955	-0.382712	0	
-0.258294	-0.372601	0	
-0.239316	-0.364723	0	
-0.221643	-0.358792	0	
-0.204947	-0.354597	0	
-0.188906	-0.351992	0	
-0.173145	-0.350886	0	
-0.157188	-0.351218	0	
-0.140392	-0.352885	0	
-0.122073	-0.355472	0	
-0.102202	-0.358088	0	
-0.08109	-0.360141	0	
-0.0574269	-0.360874	0	
-0.00459678	-0.351057	0	
-0.0305433	-0.364164	0	
-0.021932	-0.3771	0	
-0.0149019	-0.384563	0	
-0.0090244	-0.391294	0	
-0.00541703	-0.397262	0	
-0.00341191	-0.402522	0	
-0.00229421	-0.407001	0	
-0.00151052	-0.410958	0	
-0.000904974	-0.414567	0	
-0.000459739	-0.4179	0	
-0.00017389	-0.420952	0	
-2.34087e-005	-0.423716	0	
2.37051e-005	-0.426196	0	
-3.37069e-006	-0.428407	0	
-8.11857e-005	-0.430368	0	
-0.000191356	-0.432099	0	
-0.000319288	-0.433622	0	
-0.000453384	-0.434956	0	
-0.000584623	-0.43612	0	
-0.00070625	-0.437132	0	
-0.000813461	-0.438009	0	
-0.000903042	-0.438767	0	
-0.000973037	-0.439419	0	
-0.00102244	-0.439979	0	
-0.00105098	-0.440457	0	
-0.00105891	-0.440864	0	
-0.0010469	-0.441208	0	
-0.00101594	-0.441499	0	
-0.000967243	-0.441742	0	
-0.000902234	-0.441945	0	
-0.000822476	-0.442111	0	
-0.000729646	-0.442247	0	
-0.000625504	-0.442356	0	
-0.00051187	-0.44244	0	
-0.000390606	-0.442504	0	
-0.0002636	-0.442547	0	
-0.00013276	-0.442573	0	
4.35056e-014	-0.442582	0	
0.00013276	-0.442573	0	
0.0002636	-0.442547	0	
0.000390606	-0.442504	0	
0.00051187	-0.44244	0	
0.000625504	-0.442356	0	
0.000729646	-0.442247	0	
0.000822476	-0.442111	0	
0.000902234	-0.441945	0	
0.000967243	-0.441742	0	
0.00101594	-0.441499	0	
0.0010469	-0.441208	0	
0.00105891	-0.440864	0	
0.00105098	-0.440457	0	
0.00102244	-0.439979	0	
0.000973037	-0.439419	0	
0.000903042	-0.438767	0	
0.000813461	-0.438009	0	
0.00070625	-0.437132	0	
0.000584623	-0.43612	0	
0.000453384	-0.434956	0	
0.000319288	-0.433622	0	
0.000191356	-0.432099	0	
8.11857e-005	-0.430368	0	
3.37069e-006	-0.428407	0	
-2.37051e-005	-0.426196	0	
2.34087e-005	-0.423716	0	
0.00017389	-0.420952	0	
0.000459739	-0.4179	0	
0.000904974	-0.414567	0	
0.00151052	-0.410958	0	
0.00229421	-0.407001	0	
0.00341191	-0.402522	0	
0.00541703	-0.397262	0	
0.0090244	-0.391294	0	
0.0149019	-0.384563	0	
0.021932	-0.3771	0	
0.0305433	-0.364164	0	
0.00459678	-0.351057	0	
0.0574269	-0.360874	0	
0.08109	-0.360141	0	
0.102202	-0.358088	0	
0.122073	-0.355472	0	
0.140392	-0.352885	0	
0.157188	-0.351218	0	
0.173145	-0.350886	0	
0.188906	-0.351992	0	
0.204947	-0.354597	0	
0.221643	-0.358792	0	
0.239316	-0.364723	0	
0.258294	-0.372601	0	
0.278955	-0.382712	0	
0.301779	-0.395425	0	
0.327412	-0.41121	0	
0.356759	-0.430649	0	
0.391099	-0.454419	0	
0.432242	-0.483221	0	
0.48261	-0.517523	0	
0.545053	-0.557144	0	
0.622048	-0.600762	0	
0.714389	-0.645983	0	
-0.817434	-0.744296	0	
-0.725778	-0.70126	0	
-0.646328	-0.659346	0	
-0.578903	-0.620275	0	
-0.522155	-0.585237	0	
-0.474228	-0.55474	0	
-0.433282	-0.52875	0	
-0.397757	-0.506932	0	
-0.366434	-0.488839	0	
-0.338387	-0.474023	0	
-0.312915	-0.462085	0	
-0.289477	-0.452687	0	
-0.267637	-0.445554	0	
-0.247014	-0.440469	0	
-0.227242	-0.437266	0	
-0.207929	-0.435812	0	
-0.188628	-0.435976	0	
-0.168859	-0.43757	0	
-0.148247	-0.44031	0	
-0.126581	-0.444032	0	
-0.103614	-0.449111	0	
-0.0764458	-0.457299	0	
-0.0474342	-0.467386	0	
-0.0429617	-0.480788	0	
-0.0273233	-0.470934	0	
-0.0154987	-0.473945	0	
-0.00798889	-0.478587	0	
-0.00393271	-0.484315	0	
-0.00243158	-0.489131	0	
-0.00151489	-0.493289	0	
-0.000671894	-0.497147	0	
6.03234e-005	-0.5009	0	
0.000553823	-0.504469	0	
0.0008136	-0.507763	0	
0.000894884	-0.51075	0	
0.000852421	-0.513432	0	
0.000727222	-0.515827	0	
0.000548372	-0.517957	0	
0.000337848	-0.519841	0	
0.000113137	-0.521502	0	
-0.000111829	-0.52296	0	
-0.00032639	-0.524234	0	
-0.000522841	-0.525345	0	
-0.000695976	-0.52631	0	
-0.000842563	-0.527146	0	
-0.000960856	-0.527868	0	
-0.0010502	-0.528489	0	
-0.00111075	-0.529021	0	
-0.00114324	-0.529474	0	
-0.00114884	-0.52986	0	
-0.00112907	-0.530186	0	
-0.00108572	-0.53046	0	
-0.00102077	-0.530688	0	
-0.000936389	-0.530877	0	
-0.000834836	-0.531031	0	
-0.00071847	-0.531154	0	
-0.000589707	-0.53125	0	
-0.000450998	-0.531322	0	
-0.00030482	-0.531373	0	
-0.000153656	-0.531402	0	
5.31103e-014	-0.531412	0	
0.000153656	-0.531402	0	
0.00030482	-0.531373	0	
0.000450998	-0.531322	0	
0.000589707	-0.53125	0	
0.00071847	-0.531154	0	
0.000834836	-0.531031	0	
0.000936389	-0.530877	0	
0.00102077	-0.530688	0	
0.00108572	-0.53046	0	
0.00112907	-0.530186	0	
0.00114884	-0.52986	0	
0.00114324	-0.529474	0	
0.00111075	-0.529021	0	
0.0010502	-0.528489	0	
0.000960856	-0.527868	0	
0.000842563	-0.527146	0	
0.000695976	-0.52631	0	
0.000522841	-0.525345	0	
0.00032639	-0.524234	0	
0.000111829	-0.52296	0	
-0.000113137	-0.521502	0	
-0.000337848	-0.519841	0	
-0.000548372	-0.517957	0	
-0.000727222	-0.515827	0	
-0.000852421	-0.513432	0	
-0.000894884	-0.51075	0	
-0.0008136	-0.507763	0	
-0.000553823	-0.504469	0	
-6.03234e-005	-0.5009	0	
0.000671894	-0.497147	0	
0.00151489	-0.493289	0	
0.00243158	-0.489131	0	
0.00393271	-0.484315	0	
0.00798889	-0.478587	0	
0.0154987	-0.473945	0	
0.0273233	-0.470934	0	
0.0429617	-0.480788	0	
0.0474342	-0.467386	0	
0.0764458	-0.457299	0	
0.103614	-0.449111	0	
0.126581	-0.444032	0	
0.148247	-0.44031	0	
0.168859	-0.43757	0	
0.188628	-0.435976	0	
0.207929	-0.435812	0	
0.227242	-0.437266	0	
0.247014	-0.440469	0	
0.267637	-0.445554	0	
0.289477	-0.452687	0	
0.312915	-0.462085	0	
0.338387	-0.474023	0	
0.366434	-0.488839	0	
0.397757	-0.506932	0	
0.433282	-0.52875	0	
0.474228	-0.55474	0	
0.522155	-0.585237	0	
0.578903	-0.620275	0	
0.646328	-0.659346	0	
0.725778	-0.70126	0	
0.817434	-0.744296	0	
-0.915894	-0.840978	0	
-0.824505	-0.799749	0	
-0.743192	-0.759412	0	
-0.671995	-0.721233	0	
-0.61017	-0.686216	0	
-0.556509	-0.654951	0	
-0.509667	-0.627634	0	
-0.468383	-0.604185	0	
-0.431578	-0.584365	0	
-0.398375	-0.567873	0	
-0.368073	-0.554404	0	
-0.340107	-0.543674	0	
-0.314009	-0.535436	0	
-0.289371	-0.529478	0	
-0.265807	-0.525618	0	
-0.24293	-0.523692	0	
-0.220338	-0.52353	0	
-0.197636	-0.524944	0	
-0.174461	-0.527766	0	
-0.150452	-0.531941	0	
-0.124869	-0.537617	0	
-0.0972878	-0.543929	0	
-0.0719847	-0.549114	0	
-0.0539028	-0.556316	0	
-0.0346771	-0.56846	0	
-0.0182532	-0.563517	0	
-0.00542634	-0.568322	0	
-0.00240065	-0.573045	0	
-0.0018344	-0.576988	0	
-0.000981095	-0.580385	0	
0.000309084	-0.584231	0	
0.00127464	-0.588234	0	
0.00179726	-0.592035	0	
0.00198698	-0.595502	0	
0.00196411	-0.598617	0	
0.00180976	-0.601408	0	
0.00157034	-0.603903	0	
0.0012765	-0.606127	0	
0.000952572	-0.608099	0	
0.00061918	-0.609839	0	
0.000292932	-0.611369	0	
-1.38157e-005	-0.612709	0	
-0.000292584	-0.61388	0	
-0.000538025	-0.614899	0	
-0.00074713	-0.615785	0	
-0.000918552	-0.616551	0	
-0.00105211	-0.617212	0	
-0.00114846	-0.61778	0	
-0.00120884	-0.618266	0	
-0.001235	-0.61868	0	
-0.001229	-0.619031	0	
-0.00119322	-0.619326	0	
-0.00113028	-0.619573	0	
-0.00104293	-0.619777	0	
-0.000934098	-0.619944	0	
-0.000806764	-0.620079	0	
-0.000663977	-0.620184	0	
-0.000508814	-0.620263	0	
-0.000344366	-0.620317	0	
-0.00017373	-0.62035	0	
6.29818e-014	-0.62036	0	
0.00017373	-0.62035	0	
0.000344366	-0.620317	0	
0.000508814	-0.620263	0	