# vtk DataFile Version 4.1
vtk output
ASCII
DATASET UNSTRUCTURED_GRID

POINTS	149	float
0	0	0	
0	0.5	0	
0	1	0	
0	1.5	0	
0	2	0	
5	0	0	
5	0.5	0	
5	1	0	
5	1.5	0	
5	2	0	
10	0	0	
10	0.5	0	
10	1	0	
10	1.5	0	
10	2	0	
15	0	0	
15	0.5	0	
15	1	0	
15	1.5	0	
15	2	0	
20	0	0	
20	0.5	0	
20	1	0	
20	1.5	0	
20	2	0	
25	0	0	
25	0.5	0	
25	1	0	
25	1.5	0	
25	2	0	
30	0	0	
30	0.5	0	
30	1	0	
30	1.5	0	
30	2	0	
35	0	0	
35	0.5	0	
35	1	0	
35	1.5	0	
35	2	0	
40	0	0	
40	0.5	0	
40	1	0	
40	1.5	0	
40	2	0	
45	0	0	
45	0.5	0	
45	1	0	
45	1.5	0	
45	2	0	
50	0	0	
50	0.5	0	
50	1	0	
50	1.5	0	
50	2	0	
2.5	0	0	
5	0.25	0	
2.5	0.5	0	
0	0.25	0	
5	0.75	0	
2.5	1	0	
0	0.75	0	
5	1.25	0	
2.5	1.5	0	
0	1.25	0	
5	1.75	0	
2.5	2	0	
0	1.75	0	
7.5	0	0	
10	0.25	0	
7.5	0.5	0	
10	0.75	0	
7.5	1	0	
10	1.25	0	
7.5	1.5	0	
10	1.75	0	
7.5	2	0	
12.5	0	0	
15	0.25	0	
12.5	0.5	0	
15	0.75	0	
12.5	1	0	
15	1.25	0	
12.5	1.5	0	
15	1.75	0	
12.5	2	0	
17.5	0	0	
20	0.25	0	
17.5	0.5	0	
20	0.75	0	
17.5	1	0	
20	1.25	0	
17.5	1.5	0	
20	1.75	0	
17.5	2	0	
22.5	0	0	
25	0.25	0	
22.5	0.5	0	
25	0.75	0	
22.5	1	0	
25	1.25	0	
22.5	1.5	0	
25	1.75	0	
22.5	2	0	
27.5	0	0	
30	0.25	0	
27.5	0.5	0	
30	0.75	0	
27.5	1	0	
30	1.25	0	
27.5	1.5	0	
30	1.75	0	
27.5	2	0	
32.5	0	0	
35	0.25	0	
32.5	0.5	0	
35	0.75	0	
32.5	1	0	
35	1.25	0	
32.5	1.5	0	
35	1.75	0	
32.5	2	0	
37.5	0	0	
40	0.25	0	
37.5	0.5	0	
40	0.75	0	
37.5	1	0	
40	1.25	0	
37.5	1.5	0	
40	1.75	0	
37.5	2	0	
42.5	0	0	
45	0.25	0	
42.5	0.5	0	
45	0.75	0	
42.5	1	0	
45	1.25	0	
42.5	1.5	0	
45	1.75	0	
42.5	2	0	
47.5	0	0	
50	0.25	0	
47.5	0.5	0	
50	0.75	0	
47.5	1	0	
50	1.25	0	
47.5	1.5	0	
50	1.75	0	
47.5	2	0	

CELLS 40	360
8	0	5	6	1	55	56	57	58	
8	1	6	7	2	57	59	60	61	
8	2	7	8	3	60	62	63	64	
8	3	8	9	4	63	65	66	67	
8	5	10	11	6	68	69	70	56	
8	6	11	12	7	70	71	72	59	
8	7	12	13	8	72	73	74	62	
8	8	13	14	9	74	75	76	65	
8	10	15	16	11	77	78	79	69	
8	11	16	17	12	79	80	81	71	
8	12	17	18	13	81	82	83	73	
8	13	18	19	14	83	84	85	75	
8	15	20	21	16	86	87	88	78	
8	16	21	22	17	88	89	90	80	
8	17	22	23	18	90	91	92	82	
8	18	23	24	19	92	93	94	84	
8	20	25	26	21	95	96	97	87	
8	21	26	27	22	97	98	99	89	
8	22	27	28	23	99	100	101	91	
8	23	28	29	24	101	102	103	93	
8	25	30	31	26	104	105	106	96	
8	26	31	32	27	106	107	108	98	
8	27	32	33	28	108	109	110	100	
8	28	33	34	29	110	111	112	102	
8	30	35	36	31	113	114	115	105	
8	31	36	37	32	115	116	117	107	
8	32	37	38	33	117	118	119	109	
8	33	38	39	34	119	120	121	111	
8	35	40	41	36	122	123	124	114	
8	36	41	42	37	124	125	126	116	
8	37	42	43	38	126	127	128	118	
8	38	43	44	39	128	129	130	120	
8	40	45	46	41	131	132	133	123	
8	41	46	47	42	133	134	135	125	
8	42	47	48	43	135	136	137	127	
8	43	48	49	44	137	138	139	129	
8	45	50	51	46	140	141	142	132	
8	46	51	52	47	142	143	144	134	
8	47	52	53	48	144	145	146	136	
8	48	53	54	49	146	147	148	138	

CELL_TYPES	40
23
23
23
23
23
23
23
23
23
23
23
23
23
23
23
23
23
23
23
23
23
23
23
23
23
23
23
23
23
23
23
23
23
23
23
23
23
23
23
23

POINT_DATA	149
VECTORS u float
18.4173	-81.7365	0	
8.23849	-81.7152	0	
-1.71453	-81.6997	0	
-11.6695	-81.7172	0	
-21.8549	-81.7398	0	
13.5869	10.0965	0	
6.25489	10.1073	0	
-0.880032	10.1149	0	
-8.01885	10.1078	0	
-15.3632	10.0971	0	
0.0961718	46.7467	0	
0.085121	46.757	0	
-0.0483708	46.7644	0	
-0.185448	46.757	0	
-0.208561	46.7467	0	
-8.2533	21.7523	0	
-3.73594	21.7588	0	
0.54535	21.7622	0	
4.82312	21.7588	0	
9.32851	21.7523	0	
-6.95501	-23.3282	0	
-2.94234	-23.3249	0	
0.901444	-23.3251	0	
4.74171	-23.3249	0	
8.74243	-23.3282	0	
1.01246	-44.3571	0	
1.0184	-44.355	0	
1.02012	-44.3565	0	
1.01832	-44.355	0	
1.01231	-44.3571	0	
8.74255	-23.3274	0	
4.74177	-23.3242	0	
0.901441	-23.3243	0	
-2.9424	-23.3242	0	
-6.95513	-23.3274	0	
9.32859	21.7535	0	
4.82316	21.7601	0	
0.545346	21.7634	0	
-3.73598	21.7601	0	
-8.25338	21.7535	0	
-0.208503	46.7483	0	
-0.185421	46.7586	0	
-0.0483761	46.766	0	
0.0850848	46.7586	0	
0.0961042	46.7483	0	
-15.3632	10.0989	0	
-8.01883	10.1097	0	
-0.880038	10.1167	0	
6.25487	10.1092	0	
13.5869	10.0983	0	
-21.8549	-81.7378	0	
-11.6695	-81.7153	0	
-1.71454	-81.6978	0	
8.23847	-81.7133	0	
18.4173	-81.7345	0	
16.8894	-32.517	0	
9.89777	10.1008	0	
7.69283	-32.5189	0	
13.3064	-81.7281	0	
2.68015	10.1092	0	
-1.44292	-32.522	0	
3.25451	-81.7066	0	
-4.44194	10.1095	0	
-10.5791	-32.5193	0	
-6.68435	-81.7076	0	
-11.6682	10.1014	0	
-19.7806	-32.5176	0	
-16.7408	-81.7309	0	
6.83522	37.4354	0	
0.105934	46.7504	0	
3.17764	37.4279	0	
0.0232193	46.7592	0	
-0.486721	37.4199	0	
-0.121908	46.7592	0	
-4.14898	37.4279	0	
-0.212204	46.7504	0	
-7.80882	37.4354	0	
-4.75658	39.7204	0	
-5.97463	21.7539	0	
-2.24904	39.7179	0	
-1.5887	21.7593	0	
0.226038	39.7139	0	
2.67759	21.7593	0	
2.70316	39.7179	0	
7.05582	21.7538	0	
5.20834	39.7204	0	
-8.29543	-1.62867	0	
-4.93449	-23.3284	0	
-3.78212	-1.62718	0	
-1.0158	-23.326	0	
0.700931	-1.62736	0	
2.81685	-23.326	0	
5.18602	-1.62718	0	
6.7279	-23.3284	0	
9.69696	-1.62867	0	
-3.25926	-39.0704	0	
1.01543	-44.358	0	
-1.15388	-39.0665	0	
1.01922	-44.3567	0	
0.938298	-39.0645	0	
1.01918	-44.3567	0	
3.03251	-39.0665	0	
1.01532	-44.358	0	
5.13552	-39.0704	0	
5.13567	-39.07	0	
6.72799	-23.3277	0	
3.03258	-39.0661	0	
2.81688	-23.3253	0	
0.938296	-39.0642	0	
-1.01584	-23.3253	0	
-1.15395	-39.0661	0	
-4.93458	-23.3277	0	
-3.2594	-39.07	0	
9.69705	-1.62766	0	
7.05587	21.7551	0	
5.18607	-1.62617	0	
2.67761	21.7605	0	
0.700928	-1.62635	0	
-1.58873	21.7605	0	
-3.78217	-1.62617	0	
-5.9747	21.7551	0	
-8.29553	-1.62766	0	
5.20841	39.7219	0	
-0.212162	46.752	0	
2.7032	39.7193	0	
-0.121897	46.7608	0	
0.226035	39.7154	0	
0.0231989	46.7608	0	
-2.24908	39.7193	0	
0.105882	46.752	0	
-4.75665	39.7218	0	
-7.80878	37.4372	0	
-11.6682	10.1032	0	
-4.14896	37.4296	0	
-4.44193	10.1113	0	
-0.486727	37.4216	0	
2.68013	10.1111	0	
3.17762	37.4296	0	
9.89774	10.1027	0	
6.83517	37.4372	0	
-19.7806	-32.5157	0	
-16.7408	-81.729	0	
-10.5791	-32.5174	0	
-6.68435	-81.7056	0	
-1.44293	-32.5201	0	
3.2545	-81.7046	0	
7.69282	-32.517	0	
13.3064	-81.7262	0	
16.8893	-32.5151	0	
