# vtk DataFile Version 4.1
vtk output
ASCII
DATASET UNSTRUCTURED_GRID

POINTS	149	float
0	0	0	
0	0.5	0	
0	1	0	
0	1.5	0	
0	2	0	
5	0	0	
5	0.5	0	
5	1	0	
5	1.5	0	
5	2	0	
10	0	0	
10	0.5	0	
10	1	0	
10	1.5	0	
10	2	0	
15	0	0	
15	0.5	0	
15	1	0	
15	1.5	0	
15	2	0	
20	0	0	
20	0.5	0	
20	1	0	
20	1.5	0	
20	2	0	
25	0	0	
25	0.5	0	
25	1	0	
25	1.5	0	
25	2	0	
30	0	0	
30	0.5	0	
30	1	0	
30	1.5	0	
30	2	0	
35	0	0	
35	0.5	0	
35	1	0	
35	1.5	0	
35	2	0	
40	0	0	
40	0.5	0	
40	1	0	
40	1.5	0	
40	2	0	
45	0	0	
45	0.5	0	
45	1	0	
45	1.5	0	
45	2	0	
50	0	0	
50	0.5	0	
50	1	0	
50	1.5	0	
50	2	0	
2.5	0	0	
5	0.25	0	
2.5	0.5	0	
0	0.25	0	
5	0.75	0	
2.5	1	0	
0	0.75	0	
5	1.25	0	
2.5	1.5	0	
0	1.25	0	
5	1.75	0	
2.5	2	0	
0	1.75	0	
7.5	0	0	
10	0.25	0	
7.5	0.5	0	
10	0.75	0	
7.5	1	0	
10	1.25	0	
7.5	1.5	0	
10	1.75	0	
7.5	2	0	
12.5	0	0	
15	0.25	0	
12.5	0.5	0	
15	0.75	0	
12.5	1	0	
15	1.25	0	
12.5	1.5	0	
15	1.75	0	
12.5	2	0	
17.5	0	0	
20	0.25	0	
17.5	0.5	0	
20	0.75	0	
17.5	1	0	
20	1.25	0	
17.5	1.5	0	
20	1.75	0	
17.5	2	0	
22.5	0	0	
25	0.25	0	
22.5	0.5	0	
25	0.75	0	
22.5	1	0	
25	1.25	0	
22.5	1.5	0	
25	1.75	0	
22.5	2	0	
27.5	0	0	
30	0.25	0	
27.5	0.5	0	
30	0.75	0	
27.5	1	0	
30	1.25	0	
27.5	1.5	0	
30	1.75	0	
27.5	2	0	
32.5	0	0	
35	0.25	0	
32.5	0.5	0	
35	0.75	0	
32.5	1	0	
35	1.25	0	
32.5	1.5	0	
35	1.75	0	
32.5	2	0	
37.5	0	0	
40	0.25	0	
37.5	0.5	0	
40	0.75	0	
37.5	1	0	
40	1.25	0	
37.5	1.5	0	
40	1.75	0	
37.5	2	0	
42.5	0	0	
45	0.25	0	
42.5	0.5	0	
45	0.75	0	
42.5	1	0	
45	1.25	0	
42.5	1.5	0	
45	1.75	0	
42.5	2	0	
47.5	0	0	
50	0.25	0	
47.5	0.5	0	
50	0.75	0	
47.5	1	0	
50	1.25	0	
47.5	1.5	0	
50	1.75	0	
47.5	2	0	

CELLS 40	360
8	0	5	6	1	55	56	57	58	
8	1	6	7	2	57	59	60	61	
8	2	7	8	3	60	62	63	64	
8	3	8	9	4	63	65	66	67	
8	5	10	11	6	68	69	70	56	
8	6	11	12	7	70	71	72	59	
8	7	12	13	8	72	73	74	62	
8	8	13	14	9	74	75	76	65	
8	10	15	16	11	77	78	79	69	
8	11	16	17	12	79	80	81	71	
8	12	17	18	13	81	82	83	73	
8	13	18	19	14	83	84	85	75	
8	15	20	21	16	86	87	88	78	
8	16	21	22	17	88	89	90	80	
8	17	22	23	18	90	91	92	82	
8	18	23	24	19	92	93	94	84	
8	20	25	26	21	95	96	97	87	
8	21	26	27	22	97	98	99	89	
8	22	27	28	23	99	100	101	91	
8	23	28	29	24	101	102	103	93	
8	25	30	31	26	104	105	106	96	
8	26	31	32	27	106	107	108	98	
8	27	32	33	28	108	109	110	100	
8	28	33	34	29	110	111	112	102	
8	30	35	36	31	113	114	115	105	
8	31	36	37	32	115	116	117	107	
8	32	37	38	33	117	118	119	109	
8	33	38	39	34	119	120	121	111	
8	35	40	41	36	122	123	124	114	
8	36	41	42	37	124	125	126	116	
8	37	42	43	38	126	127	128	118	
8	38	43	44	39	128	129	130	120	
8	40	45	46	41	131	132	133	123	
8	41	46	47	42	133	134	135	125	
8	42	47	48	43	135	136	137	127	
8	43	48	49	44	137	138	139	129	
8	45	50	51	46	140	141	142	132	
8	46	51	52	47	142	143	144	134	
8	47	52	53	48	144	145	146	136	
8	48	53	54	49	146	147	148	138	

CELL_TYPES	40
23
23
23
23
23
23
23
23
23
23
23
23
23
23
23
23
23
23
23
23
23
23
23
23
23
23
23
23
23
23
23
23
23
23
23
23
23
23
23
23

POINT_DATA	149
VECTORS u float
0	0	0	
4.46133	-1.58482	0	
9.52	-2.45704	0	
15.1929	-2.78754	0	
21.8073	-2.82313	0	
5.28335	-46.6429	0	
4.95679	-46.8499	0	
4.96673	-46.873	0	
5.06435	-46.8269	0	
5.2275	-46.7915	0	
18.1825	-0.206289	0	
10.373	-0.236343	0	
3.21362	-0.225046	0	
-3.94375	-0.203575	0	
-11.6765	-0.188104	0	
6.6259	51.464	0	
5.12876	51.4628	0	
3.72489	51.4729	0	
2.32039	51.4701	0	
0.838856	51.4701	0	
-6.72415	23.1054	0	
-0.255843	23.1029	0	
5.80372	23.1056	0	
11.8648	23.104	0	
18.3431	23.1063	0	
-0.632981	-39.2556	0	
4.21417	-39.2656	0	
8.78894	-39.2723	0	
13.366	-39.2654	0	
18.2229	-39.2555	0	
17.977	-48.7148	0	
14.9435	-48.7254	0	
12.1232	-48.7324	0	
9.30551	-48.7251	0	
6.28147	-48.7146	0	
27.0101	1.51865	0	
21.0004	1.51327	0	
15.3544	1.51379	0	
9.71073	1.51434	0	
3.70728	1.51852	0	
19.3681	37.3691	0	
18.784	37.3549	0	
18.1399	37.3541	0	
17.4942	37.3519	0	
16.8995	37.3545	0	
13.8113	19.2537	0	
17.1825	19.1579	0	
20.2379	19.1033	0	
23.2777	19.0829	0	
26.5985	19.0846	0	
19.5219	0	0	
20.1733	-0.598055	0	
21.2471	-1.01646	0	
22.4291	-1.22048	0	
23.444	-1.26081	0	
-1.91146	-32.8712	0	
5.14245	-46.7415	0	
2.97686	-32.6912	0	
2.28397	-0.819042	0	
4.97477	-46.8517	0	
7.29081	-32.6701	0	
6.9868	-2.05147	0	
5.01981	-46.8419	0	
11.5043	-32.7265	0	
12.298	-2.64988	0	
5.14091	-46.8087	0	
15.9109	-32.7671	0	
18.3913	-2.82344	0	
13.1079	-33.1537	0	
14.199	-0.224046	0	
8.44513	-33.1222	0	
6.76544	-0.234036	0	
3.83926	-33.1254	0	
-0.343874	-0.217328	0	
-0.769184	-33.1552	0	
-7.73822	-0.19789	0	
-5.49422	-33.1755	0	
13.5707	33.7799	0	
5.87497	51.4638	0	
8.38745	33.7697	0	
4.42601	51.4667	0	
3.26705	33.7573	0	
3.02322	51.4702	0	
-1.85187	33.7622	0	
1.58091	51.4702	0	
-7.03778	33.7727	0	
-1.01174	47.4814	0	
-3.44753	23.1031	0	
1.84077	47.4703	0	
2.78732	23.1031	0	
4.6481	47.4612	0	
8.81899	23.1036	0	
7.45485	47.4694	0	
15.0588	23.1041	0	
10.3097	47.4806	0	
-5.1851	-10.0112	0	
1.81747	-39.2624	0	
1.07133	-10.009	0	
6.51002	-39.269	0	
7.25709	-10.0056	0	
11.0676	-39.269	0	
13.4416	-10.0091	0	
15.7653	-39.2622	0	
19.7005	-10.0113	0	
8.59238	-53.819	0	
16.4362	-48.722	0	
9.53704	-53.8091	0	
13.5251	-48.7291	0	
10.4802	-53.7987	0	
10.721	-48.7289	0	
11.4219	-53.8091	0	
7.81494	-48.7217	0	
12.369	-53.819	0	
23.8365	-27.2276	0	
23.9643	1.5151	0	
18.7908	-27.2248	0	
18.1637	1.51273	0	
13.8126	-27.2209	0	
12.5451	1.51327	0	
8.83282	-27.2251	0	
6.74807	1.51561	0	
3.78993	-27.2279	0	
24.0135	26.4587	0	
19.0806	37.3613	0	
20.4136	26.4504	0	
18.4627	37.3521	0	
16.8551	26.4434	0	
17.8135	37.3506	0	
13.2955	26.4494	0	
17.188	37.3523	0	
9.70143	26.4587	0	
15.6864	33.4047	0	
15.5415	19.2056	0	
17.5224	33.409	0	
18.7251	19.1329	0	
19.3096	33.4083	0	
21.7455	19.0955	0	
21.1003	33.4112	0	
24.8978	19.0842	0	
22.96	33.4165	0	
16.9992	5.55869	0	
19.7753	-0.307201	0	
18.9574	5.65247	0	
20.6794	-0.816456	0	
20.9899	5.71729	0	
21.8458	-1.12783	0	
23.0485	5.73373	0	
22.982	-1.24903	0	
25.0797	5.72884	0	
