# vtk DataFile Version 4.1
vtk output
ASCII
DATASET UNSTRUCTURED_GRID

POINTS	149	float
0	0	0	
0	0.5	0	
0	1	0	
0	1.5	0	
0	2	0	
5	0	0	
5	0.5	0	
5	1	0	
5	1.5	0	
5	2	0	
10	0	0	
10	0.5	0	
10	1	0	
10	1.5	0	
10	2	0	
15	0	0	
15	0.5	0	
15	1	0	
15	1.5	0	
15	2	0	
20	0	0	
20	0.5	0	
20	1	0	
20	1.5	0	
20	2	0	
25	0	0	
25	0.5	0	
25	1	0	
25	1.5	0	
25	2	0	
30	0	0	
30	0.5	0	
30	1	0	
30	1.5	0	
30	2	0	
35	0	0	
35	0.5	0	
35	1	0	
35	1.5	0	
35	2	0	
40	0	0	
40	0.5	0	
40	1	0	
40	1.5	0	
40	2	0	
45	0	0	
45	0.5	0	
45	1	0	
45	1.5	0	
45	2	0	
50	0	0	
50	0.5	0	
50	1	0	
50	1.5	0	
50	2	0	
2.5	0	0	
5	0.25	0	
2.5	0.5	0	
0	0.25	0	
5	0.75	0	
2.5	1	0	
0	0.75	0	
5	1.25	0	
2.5	1.5	0	
0	1.25	0	
5	1.75	0	
2.5	2	0	
0	1.75	0	
7.5	0	0	
10	0.25	0	
7.5	0.5	0	
10	0.75	0	
7.5	1	0	
10	1.25	0	
7.5	1.5	0	
10	1.75	0	
7.5	2	0	
12.5	0	0	
15	0.25	0	
12.5	0.5	0	
15	0.75	0	
12.5	1	0	
15	1.25	0	
12.5	1.5	0	
15	1.75	0	
12.5	2	0	
17.5	0	0	
20	0.25	0	
17.5	0.5	0	
20	0.75	0	
17.5	1	0	
20	1.25	0	
17.5	1.5	0	
20	1.75	0	
17.5	2	0	
22.5	0	0	
25	0.25	0	
22.5	0.5	0	
25	0.75	0	
22.5	1	0	
25	1.25	0	
22.5	1.5	0	
25	1.75	0	
22.5	2	0	
27.5	0	0	
30	0.25	0	
27.5	0.5	0	
30	0.75	0	
27.5	1	0	
30	1.25	0	
27.5	1.5	0	
30	1.75	0	
27.5	2	0	
32.5	0	0	
35	0.25	0	
32.5	0.5	0	
35	0.75	0	
32.5	1	0	
35	1.25	0	
32.5	1.5	0	
35	1.75	0	
32.5	2	0	
37.5	0	0	
40	0.25	0	
37.5	0.5	0	
40	0.75	0	
37.5	1	0	
40	1.25	0	
37.5	1.5	0	
40	1.75	0	
37.5	2	0	
42.5	0	0	
45	0.25	0	
42.5	0.5	0	
45	0.75	0	
42.5	1	0	
45	1.25	0	
42.5	1.5	0	
45	1.75	0	
42.5	2	0	
47.5	0	0	
50	0.25	0	
47.5	0.5	0	
50	0.75	0	
47.5	1	0	
50	1.25	0	
47.5	1.5	0	
50	1.75	0	
47.5	2	0	

CELLS 40	360
8	0	5	6	1	55	56	57	58	
8	1	6	7	2	57	59	60	61	
8	2	7	8	3	60	62	63	64	
8	3	8	9	4	63	65	66	67	
8	5	10	11	6	68	69	70	56	
8	6	11	12	7	70	71	72	59	
8	7	12	13	8	72	73	74	62	
8	8	13	14	9	74	75	76	65	
8	10	15	16	11	77	78	79	69	
8	11	16	17	12	79	80	81	71	
8	12	17	18	13	81	82	83	73	
8	13	18	19	14	83	84	85	75	
8	15	20	21	16	86	87	88	78	
8	16	21	22	17	88	89	90	80	
8	17	22	23	18	90	91	92	82	
8	18	23	24	19	92	93	94	84	
8	20	25	26	21	95	96	97	87	
8	21	26	27	22	97	98	99	89	
8	22	27	28	23	99	100	101	91	
8	23	28	29	24	101	102	103	93	
8	25	30	31	26	104	105	106	96	
8	26	31	32	27	106	107	108	98	
8	27	32	33	28	108	109	110	100	
8	28	33	34	29	110	111	112	102	
8	30	35	36	31	113	114	115	105	
8	31	36	37	32	115	116	117	107	
8	32	37	38	33	117	118	119	109	
8	33	38	39	34	119	120	121	111	
8	35	40	41	36	122	123	124	114	
8	36	41	42	37	124	125	126	116	
8	37	42	43	38	126	127	128	118	
8	38	43	44	39	128	129	130	120	
8	40	45	46	41	131	132	133	123	
8	41	46	47	42	133	134	135	125	
8	42	47	48	43	135	136	137	127	
8	43	48	49	44	137	138	139	129	
8	45	50	51	46	140	141	142	132	
8	46	51	52	47	142	143	144	134	
8	47	52	53	48	144	145	146	136	
8	48	53	54	49	146	147	148	138	

CELL_TYPES	40
23
23
23
23
23
23
23
23
23
23
23
23
23
23
23
23
23
23
23
23
23
23
23
23
23
23
23
23
23
23
23
23
23
23
23
23
23
23
23
23

POINT_DATA	149
VECTORS u float
0.156515	33.2024	0	
0.105063	33.2024	0	
0.0536116	33.2024	0	
0.00216015	33.2024	0	
-0.0492913	33.2024	0	
0.156515	33.7169	0	
0.105063	33.7169	0	
0.0536116	33.7169	0	
0.00216015	33.7169	0	
-0.0492913	33.7169	0	
0.156515	34.2314	0	
0.105063	34.2314	0	
0.0536116	34.2314	0	
0.00216016	34.2314	0	
-0.0492913	34.2314	0	
0.156515	34.7459	0	
0.105063	34.7459	0	
0.0536116	34.7459	0	
0.00216016	34.7459	0	
-0.0492913	34.7459	0	
0.156515	35.2605	0	
0.105063	35.2605	0	
0.0536116	35.2605	0	
0.00216016	35.2605	0	
-0.0492913	35.2605	0	
0.156515	35.775	0	
0.105063	35.775	0	
0.0536116	35.775	0	
0.00216016	35.775	0	
-0.0492913	35.775	0	
0.156515	36.2895	0	
0.105063	36.2895	0	
0.0536116	36.2895	0	
0.00216016	36.2895	0	
-0.0492913	36.2895	0	
0.156515	36.804	0	
0.105063	36.804	0	
0.0536116	36.804	0	
0.00216016	36.804	0	
-0.0492913	36.804	0	
0.156515	37.3185	0	
0.105063	37.3185	0	
0.0536116	37.3185	0	
0.00216016	37.3185	0	
-0.0492913	37.3185	0	
0.156515	37.833	0	
0.105063	37.833	0	
0.0536116	37.833	0	
0.00216017	37.833	0	
-0.0492913	37.833	0	
0.156514	38.3475	0	
0.105063	38.3475	0	
0.0536116	38.3475	0	
0.00216017	38.3475	0	
-0.0492913	38.3475	0	
0.156515	33.4597	0	
0.130789	33.7169	0	
0.105063	33.4597	0	
0.130789	33.2024	0	
0.0793373	33.7169	0	
0.0536116	33.4597	0	
0.0793373	33.2024	0	
0.0278859	33.7169	0	
0.00216015	33.4597	0	
0.0278859	33.2024	0	
-0.0235656	33.7169	0	
-0.0492913	33.4597	0	
-0.0235656	33.2024	0	
0.156515	33.9742	0	
0.130789	34.2314	0	
0.105063	33.9742	0	
0.0793373	34.2314	0	
0.0536116	33.9742	0	
0.0278859	34.2314	0	
0.00216016	33.9742	0	
-0.0235656	34.2314	0	
-0.0492913	33.9742	0	
0.156515	34.4887	0	
0.130789	34.7459	0	
0.105063	34.4887	0	
0.0793373	34.7459	0	
0.0536116	34.4887	0	
0.0278859	34.7459	0	
0.00216016	34.4887	0	
-0.0235656	34.7459	0	
-0.0492913	34.4887	0	
0.156515	35.0032	0	
0.130789	35.2605	0	
0.105063	35.0032	0	
0.0793373	35.2605	0	
0.0536116	35.0032	0	
0.0278859	35.2605	0	
0.00216016	35.0032	0	
-0.0235656	35.2605	0	
-0.0492913	35.0032	0	
0.156515	35.5177	0	
0.130789	35.775	0	
0.105063	35.5177	0	
0.0793373	35.775	0	
0.0536116	35.5177	0	
0.0278859	35.775	0	
0.00216016	35.5177	0	
-0.0235656	35.775	0	
-0.0492913	35.5177	0	
0.156515	36.0322	0	
0.130789	36.2895	0	
0.105063	36.0322	0	
0.0793373	36.2895	0	
0.0536116	36.0322	0	
0.0278859	36.2895	0	
0.00216016	36.0322	0	
-0.0235656	36.2895	0	
-0.0492913	36.0322	0	
0.156515	36.5467	0	
0.130789	36.804	0	
0.105063	36.5467	0	
0.0793373	36.804	0	
0.0536116	36.5467	0	
0.0278859	36.804	0	
0.00216016	36.5467	0	
-0.0235656	36.804	0	
-0.0492913	36.5467	0	
0.156515	37.0613	0	
0.130789	37.3185	0	
0.105063	37.0613	0	
0.0793373	37.3185	0	
0.0536116	37.0613	0	
0.0278859	37.3185	0	
0.00216016	37.0613	0	
-0.0235656	37.3185	0	
-0.0492913	37.0613	0	
0.156515	37.5758	0	
0.130789	37.833	0	
0.105063	37.5758	0	
0.0793373	37.833	0	
0.0536116	37.5758	0	
0.0278859	37.833	0	
0.00216016	37.5758	0	
-0.0235656	37.833	0	
-0.0492913	37.5758	0	
0.156514	38.0903	0	
0.130789	38.3475	0	
0.105063	38.0903	0	
0.0793373	38.3475	0	
0.0536116	38.0903	0	
0.0278859	38.3475	0	
0.00216017	38.0903	0	
-0.0235656	38.3475	0	
-0.0492913	38.0903	0	
