# vtk DataFile Version 4.1
vtk output
ASCII
DATASET UNSTRUCTURED_GRID

POINTS	149	float
0	0	0	
0	0.5	0	
0	1	0	
0	1.5	0	
0	2	0	
5	0	0	
5	0.5	0	
5	1	0	
5	1.5	0	
5	2	0	
10	0	0	
10	0.5	0	
10	1	0	
10	1.5	0	
10	2	0	
15	0	0	
15	0.5	0	
15	1	0	
15	1.5	0	
15	2	0	
20	0	0	
20	0.5	0	
20	1	0	
20	1.5	0	
20	2	0	
25	0	0	
25	0.5	0	
25	1	0	
25	1.5	0	
25	2	0	
30	0	0	
30	0.5	0	
30	1	0	
30	1.5	0	
30	2	0	
35	0	0	
35	0.5	0	
35	1	0	
35	1.5	0	
35	2	0	
40	0	0	
40	0.5	0	
40	1	0	
40	1.5	0	
40	2	0	
45	0	0	
45	0.5	0	
45	1	0	
45	1.5	0	
45	2	0	
50	0	0	
50	0.5	0	
50	1	0	
50	1.5	0	
50	2	0	
2.5	0	0	
5	0.25	0	
2.5	0.5	0	
0	0.25	0	
5	0.75	0	
2.5	1	0	
0	0.75	0	
5	1.25	0	
2.5	1.5	0	
0	1.25	0	
5	1.75	0	
2.5	2	0	
0	1.75	0	
7.5	0	0	
10	0.25	0	
7.5	0.5	0	
10	0.75	0	
7.5	1	0	
10	1.25	0	
7.5	1.5	0	
10	1.75	0	
7.5	2	0	
12.5	0	0	
15	0.25	0	
12.5	0.5	0	
15	0.75	0	
12.5	1	0	
15	1.25	0	
12.5	1.5	0	
15	1.75	0	
12.5	2	0	
17.5	0	0	
20	0.25	0	
17.5	0.5	0	
20	0.75	0	
17.5	1	0	
20	1.25	0	
17.5	1.5	0	
20	1.75	0	
17.5	2	0	
22.5	0	0	
25	0.25	0	
22.5	0.5	0	
25	0.75	0	
22.5	1	0	
25	1.25	0	
22.5	1.5	0	
25	1.75	0	
22.5	2	0	
27.5	0	0	
30	0.25	0	
27.5	0.5	0	
30	0.75	0	
27.5	1	0	
30	1.25	0	
27.5	1.5	0	
30	1.75	0	
27.5	2	0	
32.5	0	0	
35	0.25	0	
32.5	0.5	0	
35	0.75	0	
32.5	1	0	
35	1.25	0	
32.5	1.5	0	
35	1.75	0	
32.5	2	0	
37.5	0	0	
40	0.25	0	
37.5	0.5	0	
40	0.75	0	
37.5	1	0	
40	1.25	0	
37.5	1.5	0	
40	1.75	0	
37.5	2	0	
42.5	0	0	
45	0.25	0	
42.5	0.5	0	
45	0.75	0	
42.5	1	0	
45	1.25	0	
42.5	1.5	0	
45	1.75	0	
42.5	2	0	
47.5	0	0	
50	0.25	0	
47.5	0.5	0	
50	0.75	0	
47.5	1	0	
50	1.25	0	
47.5	1.5	0	
50	1.75	0	
47.5	2	0	

CELLS 40	360
8	0	5	6	1	55	56	57	58	
8	1	6	7	2	57	59	60	61	
8	2	7	8	3	60	62	63	64	
8	3	8	9	4	63	65	66	67	
8	5	10	11	6	68	69	70	56	
8	6	11	12	7	70	71	72	59	
8	7	12	13	8	72	73	74	62	
8	8	13	14	9	74	75	76	65	
8	10	15	16	11	77	78	79	69	
8	11	16	17	12	79	80	81	71	
8	12	17	18	13	81	82	83	73	
8	13	18	19	14	83	84	85	75	
8	15	20	21	16	86	87	88	78	
8	16	21	22	17	88	89	90	80	
8	17	22	23	18	90	91	92	82	
8	18	23	24	19	92	93	94	84	
8	20	25	26	21	95	96	97	87	
8	21	26	27	22	97	98	99	89	
8	22	27	28	23	99	100	101	91	
8	23	28	29	24	101	102	103	93	
8	25	30	31	26	104	105	106	96	
8	26	31	32	27	106	107	108	98	
8	27	32	33	28	108	109	110	100	
8	28	33	34	29	110	111	112	102	
8	30	35	36	31	113	114	115	105	
8	31	36	37	32	115	116	117	107	
8	32	37	38	33	117	118	119	109	
8	33	38	39	34	119	120	121	111	
8	35	40	41	36	122	123	124	114	
8	36	41	42	37	124	125	126	116	
8	37	42	43	38	126	127	128	118	
8	38	43	44	39	128	129	130	120	
8	40	45	46	41	131	132	133	123	
8	41	46	47	42	133	134	135	125	
8	42	47	48	43	135	136	137	127	
8	43	48	49	44	137	138	139	129	
8	45	50	51	46	140	141	142	132	
8	46	51	52	47	142	143	144	134	
8	47	52	53	48	144	145	146	136	
8	48	53	54	49	146	147	148	138	

CELL_TYPES	40
23
23
23
23
23
23
23
23
23
23
23
23
23
23
23
23
23
23
23
23
23
23
23
23
23
23
23
23
23
23
23
23
23
23
23
23
23
23
23
23

POINT_DATA	149
VECTORS u float
0	0	0	
2.06181	1.51893	0	
1.01944	2.07506	0	
-1.63889	2.19272	0	
-5.18679	2.18121	0	
17.9202	48.358	0	
15.0062	48.4958	0	
11.7644	48.3619	0	
8.39484	48.219	0	
4.64008	48.1592	0	
11.113	38.4703	0	
15.8969	38.4879	0	
20.2073	38.4504	0	
24.5287	38.4096	0	
29.2243	38.3878	0	
19.4223	-7.19173	0	
22.8774	-7.1889	0	
26.1568	-7.19835	0	
29.441	-7.20106	0	
32.8854	-7.2048	0	
32.6784	-16.3895	0	
31.2708	-16.387	0	
30.0388	-16.3894	0	
28.806	-16.3883	0	
27.3902	-16.3908	0	
36.0168	3.25682	0	
34.1198	3.2635	0	
32.3635	3.26675	0	
30.6051	3.26338	0	
28.6992	3.25678	0	
31.7584	8.14255	0	
32.7134	8.1495	0	
33.5564	8.15275	0	
34.397	8.14909	0	
35.3434	8.1423	0	
31.8189	-4.952	0	
32.9583	-4.94661	0	
33.9646	-4.94747	0	
34.9689	-4.948	0	
36.1037	-4.95183	0	
37.6395	-1.06454	0	
35.653	-1.0436	0	
33.8484	-1.03828	0	
32.0468	-1.03975	0	
30.0777	-1.0456	0	
35.2873	18.1235	0	
34.2357	18.2508	0	
33.3932	18.326	0	
32.5718	18.3486	0	
31.5893	18.3438	0	
25.5734	0	0	
29.6265	0.7827	0	
32.9876	1.3319	0	
36.2088	1.59074	0	
39.7921	1.6367	0	
15.6674	23.7792	0	
16.3512	48.4169	0	
10.2986	23.6874	0	
1.16213	0.795282	0	
13.3331	48.4182	0	
5.86381	23.8402	0	
1.65024	1.83156	0	
10.0804	48.2838	0	
1.56295	24.0021	0	
-0.222289	2.16177	0	
6.57076	48.1897	0	
-2.99187	24.0646	0	
-3.35138	2.204	0	
14.2945	53.6177	0	
13.5799	38.4832	0	
15.2594	53.5951	0	
18.0818	38.4724	0	
16.2424	53.6236	0	
22.3547	38.4324	0	
17.2137	53.6718	0	
26.8189	38.4008	0	
18.2486	53.6997	0	
14.3366	13.7789	0	
21.1571	-7.19068	0	
18.9174	13.7856	0	
24.5187	-7.19294	0	
23.4426	13.7963	0	
27.7949	-7.19879	0	
27.962	13.7983	0	
31.154	-7.20269	0	
32.5407	13.794	0	
26.4529	-18.0783	0	
31.9557	-16.3872	0	
27.3641	-18.0706	0	
30.6494	-16.3871	0	
28.2902	-18.0645	0	
29.4304	-16.3878	0	
29.2162	-18.0697	0	
28.1204	-16.3886	0	
30.124	-18.0775	0	
35.2495	-7.28276	0	
35.0535	3.26155	0	
33.2719	-7.28267	0	
33.237	3.26544	0	
31.3332	-7.284	0	
31.49	3.26539	0	
29.3956	-7.28257	0	
29.6688	3.2615	0	
27.4155	-7.28265	0	
34.0178	9.21099	0	
32.2503	8.1475	0	
33.531	9.2062	0	
33.14	8.1516	0	
33.0432	9.20058	0	
33.9733	8.1514	0	
32.5568	9.20624	0	
34.8583	8.14718	0	
32.0677	9.21098	0	
31.1944	1.71833	0	
32.4072	-4.94858	0	
32.5194	1.71829	0	
33.4677	-4.94633	0	
33.8059	1.71713	0	
34.4614	-4.94703	0	
35.0938	1.71874	0	
35.5192	-4.94923	0	
36.4161	1.71871	0	
34.7005	-7.11109	0	
36.6308	-1.0531	0	
34.3193	-7.10583	0	
34.7464	-1.03874	0	
33.9271	-7.1009	0	
32.955	-1.03672	0	
33.5358	-7.10447	0	
31.0824	-1.04141	0	
33.1479	-7.1111	0	
37.4772	9.64364	0	
34.727	18.1872	0	
35.5354	9.63072	0	
33.8025	18.2849	0	
33.6374	9.62572	0	
32.9905	18.3336	0	
31.7342	9.62772	0	
32.1087	18.3455	0	
29.7625	9.62821	0	
29.639	16.2059	0	
27.698	0.400936	0	
31.4148	16.0842	0	
31.3486	1.06987	0	
33.0792	16.0006	0	
34.5862	1.4741	0	
34.7099	15.9797	0	
37.9369	1.62367	0	
36.3924	15.9864	0	
