# vtk DataFile Version 4.1
vtk output
ASCII
DATASET UNSTRUCTURED_GRID

POINTS	149	float
0	0	0	
0	0.5	0	
0	1	0	
0	1.5	0	
0	2	0	
5	0	0	
5	0.5	0	
5	1	0	
5	1.5	0	
5	2	0	
10	0	0	
10	0.5	0	
10	1	0	
10	1.5	0	
10	2	0	
15	0	0	
15	0.5	0	
15	1	0	
15	1.5	0	
15	2	0	
20	0	0	
20	0.5	0	
20	1	0	
20	1.5	0	
20	2	0	
25	0	0	
25	0.5	0	
25	1	0	
25	1.5	0	
25	2	0	
30	0	0	
30	0.5	0	
30	1	0	
30	1.5	0	
30	2	0	
35	0	0	
35	0.5	0	
35	1	0	
35	1.5	0	
35	2	0	
40	0	0	
40	0.5	0	
40	1	0	
40	1.5	0	
40	2	0	
45	0	0	
45	0.5	0	
45	1	0	
45	1.5	0	
45	2	0	
50	0	0	
50	0.5	0	
50	1	0	
50	1.5	0	
50	2	0	
2.5	0	0	
5	0.25	0	
2.5	0.5	0	
0	0.25	0	
5	0.75	0	
2.5	1	0	
0	0.75	0	
5	1.25	0	
2.5	1.5	0	
0	1.25	0	
5	1.75	0	
2.5	2	0	
0	1.75	0	
7.5	0	0	
10	0.25	0	
7.5	0.5	0	
10	0.75	0	
7.5	1	0	
10	1.25	0	
7.5	1.5	0	
10	1.75	0	
7.5	2	0	
12.5	0	0	
15	0.25	0	
12.5	0.5	0	
15	0.75	0	
12.5	1	0	
15	1.25	0	
12.5	1.5	0	
15	1.75	0	
12.5	2	0	
17.5	0	0	
20	0.25	0	
17.5	0.5	0	
20	0.75	0	
17.5	1	0	
20	1.25	0	
17.5	1.5	0	
20	1.75	0	
17.5	2	0	
22.5	0	0	
25	0.25	0	
22.5	0.5	0	
25	0.75	0	
22.5	1	0	
25	1.25	0	
22.5	1.5	0	
25	1.75	0	
22.5	2	0	
27.5	0	0	
30	0.25	0	
27.5	0.5	0	
30	0.75	0	
27.5	1	0	
30	1.25	0	
27.5	1.5	0	
30	1.75	0	
27.5	2	0	
32.5	0	0	
35	0.25	0	
32.5	0.5	0	
35	0.75	0	
32.5	1	0	
35	1.25	0	
32.5	1.5	0	
35	1.75	0	
32.5	2	0	
37.5	0	0	
40	0.25	0	
37.5	0.5	0	
40	0.75	0	
37.5	1	0	
40	1.25	0	
37.5	1.5	0	
40	1.75	0	
37.5	2	0	
42.5	0	0	
45	0.25	0	
42.5	0.5	0	
45	0.75	0	
42.5	1	0	
45	1.25	0	
42.5	1.5	0	
45	1.75	0	
42.5	2	0	
47.5	0	0	
50	0.25	0	
47.5	0.5	0	
50	0.75	0	
47.5	1	0	
50	1.25	0	
47.5	1.5	0	
50	1.75	0	
47.5	2	0	

CELLS 40	360
8	0	5	6	1	55	56	57	58	
8	1	6	7	2	57	59	60	61	
8	2	7	8	3	60	62	63	64	
8	3	8	9	4	63	65	66	67	
8	5	10	11	6	68	69	70	56	
8	6	11	12	7	70	71	72	59	
8	7	12	13	8	72	73	74	62	
8	8	13	14	9	74	75	76	65	
8	10	15	16	11	77	78	79	69	
8	11	16	17	12	79	80	81	71	
8	12	17	18	13	81	82	83	73	
8	13	18	19	14	83	84	85	75	
8	15	20	21	16	86	87	88	78	
8	16	21	22	17	88	89	90	80	
8	17	22	23	18	90	91	92	82	
8	18	23	24	19	92	93	94	84	
8	20	25	26	21	95	96	97	87	
8	21	26	27	22	97	98	99	89	
8	22	27	28	23	99	100	101	91	
8	23	28	29	24	101	102	103	93	
8	25	30	31	26	104	105	106	96	
8	26	31	32	27	106	107	108	98	
8	27	32	33	28	108	109	110	100	
8	28	33	34	29	110	111	112	102	
8	30	35	36	31	113	114	115	105	
8	31	36	37	32	115	116	117	107	
8	32	37	38	33	117	118	119	109	
8	33	38	39	34	119	120	121	111	
8	35	40	41	36	122	123	124	114	
8	36	41	42	37	124	125	126	116	
8	37	42	43	38	126	127	128	118	
8	38	43	44	39	128	129	130	120	
8	40	45	46	41	131	132	133	123	
8	41	46	47	42	133	134	135	125	
8	42	47	48	43	135	136	137	127	
8	43	48	49	44	137	138	139	129	
8	45	50	51	46	140	141	142	132	
8	46	51	52	47	142	143	144	134	
8	47	52	53	48	144	145	146	136	
8	48	53	54	49	146	147	148	138	

CELL_TYPES	40
23
23
23
23
23
23
23
23
23
23
23
23
23
23
23
23
23
23
23
23
23
23
23
23
23
23
23
23
23
23
23
23
23
23
23
23
23
23
23
23

POINT_DATA	149
VECTORS u float
21.4128	-11.0497	0	
20.7427	-11.0497	0	
20.0726	-11.0497	0	
19.4024	-11.0497	0	
18.7323	-11.0497	0	
21.4128	-4.34837	0	
20.7427	-4.34837	0	
20.0726	-4.34837	0	
19.4024	-4.34837	0	
18.7323	-4.34837	0	
21.4128	2.35293	0	
20.7427	2.35293	0	
20.0726	2.35293	0	
19.4024	2.35293	0	
18.7323	2.35293	0	
21.4128	9.05423	0	
20.7427	9.05423	0	
20.0726	9.05423	0	
19.4024	9.05423	0	
18.7323	9.05423	0	
21.4128	15.7555	0	
20.7427	15.7555	0	
20.0726	15.7555	0	
19.4024	15.7555	0	
18.7323	15.7555	0	
21.4128	22.4568	0	
20.7427	22.4568	0	
20.0726	22.4568	0	
19.4024	22.4568	0	
18.7323	22.4568	0	
21.4128	29.1581	0	
20.7427	29.1581	0	
20.0726	29.1581	0	
19.4024	29.1581	0	
18.7323	29.1581	0	
21.4128	35.8594	0	
20.7427	35.8594	0	
20.0726	35.8594	0	
19.4024	35.8594	0	
18.7323	35.8594	0	
21.4128	42.5607	0	
20.7427	42.5607	0	
20.0726	42.5607	0	
19.4024	42.5607	0	
18.7323	42.5607	0	
21.4128	49.262	0	
20.7427	49.262	0	
20.0726	49.262	0	
19.4024	49.262	0	
18.7323	49.262	0	
21.4128	55.9633	0	
20.7427	55.9633	0	
20.0726	55.9633	0	
19.4024	55.9633	0	
18.7323	55.9633	0	
21.4128	-7.69903	0	
21.0778	-4.34837	0	
20.7427	-7.69903	0	
21.0778	-11.0497	0	
20.4076	-4.34837	0	
20.0726	-7.69903	0	
20.4076	-11.0497	0	
19.7375	-4.34837	0	
19.4024	-7.69903	0	
19.7375	-11.0497	0	
19.0674	-4.34837	0	
18.7323	-7.69903	0	
19.0674	-11.0497	0	
21.4128	-0.997723	0	
21.0778	2.35293	0	
20.7427	-0.997723	0	
20.4076	2.35293	0	
20.0726	-0.997723	0	
19.7375	2.35293	0	
19.4024	-0.997723	0	
19.0674	2.35293	0	
18.7323	-0.997723	0	
21.4128	5.70358	0	
21.0778	9.05423	0	
20.7427	5.70358	0	
20.4076	9.05423	0	
20.0726	5.70358	0	
19.7375	9.05423	0	
19.4024	5.70358	0	
19.0674	9.05423	0	
18.7323	5.70358	0	
21.4128	12.4049	0	
21.0778	15.7555	0	
20.7427	12.4049	0	
20.4076	15.7555	0	
20.0726	12.4049	0	
19.7375	15.7555	0	
19.4024	12.4049	0	
19.0674	15.7555	0	
18.7323	12.4049	0	
21.4128	19.1062	0	
21.0778	22.4568	0	
20.7427	19.1062	0	
20.4076	22.4568	0	
20.0726	19.1062	0	
19.7375	22.4568	0	
19.4024	19.1062	0	
19.0674	22.4568	0	
18.7323	19.1062	0	
21.4128	25.8075	0	
21.0778	29.1581	0	
20.7427	25.8075	0	
20.4076	29.1581	0	
20.0726	25.8075	0	
19.7375	29.1581	0	
19.4024	25.8075	0	
19.0674	29.1581	0	
18.7323	25.8075	0	
21.4128	32.5088	0	
21.0778	35.8594	0	
20.7427	32.5088	0	
20.4076	35.8594	0	
20.0726	32.5088	0	
19.7375	35.8594	0	
19.4024	32.5088	0	
19.0674	35.8594	0	
18.7323	32.5088	0	
21.4128	39.2101	0	
21.0778	42.5607	0	
20.7427	39.2101	0	
20.4076	42.5607	0	
20.0726	39.2101	0	
19.7375	42.5607	0	
19.4024	39.2101	0	
19.0674	42.5607	0	
18.7323	39.2101	0	
21.4128	45.9114	0	
21.0778	49.262	0	
20.7427	45.9114	0	
20.4076	49.262	0	
20.0726	45.9114	0	
19.7375	49.262	0	
19.4024	45.9114	0	
19.0674	49.262	0	
18.7323	45.9114	0	
21.4128	52.6127	0	
21.0778	55.9633	0	
20.7427	52.6127	0	
20.4076	55.9633	0	
20.0726	52.6127	0	
19.7375	55.9633	0	
19.4024	52.6127	0	
19.0674	55.9633	0	
18.7323	52.6127	0	
