# vtk DataFile Version 4.1
vtk output
ASCII
DATASET UNSTRUCTURED_GRID

POINTS	149	float
0	0	0	
0	0.5	0	
0	1	0	
0	1.5	0	
0	2	0	
5	0	0	
5	0.5	0	
5	1	0	
5	1.5	0	
5	2	0	
10	0	0	
10	0.5	0	
10	1	0	
10	1.5	0	
10	2	0	
15	0	0	
15	0.5	0	
15	1	0	
15	1.5	0	
15	2	0	
20	0	0	
20	0.5	0	
20	1	0	
20	1.5	0	
20	2	0	
25	0	0	
25	0.5	0	
25	1	0	
25	1.5	0	
25	2	0	
30	0	0	
30	0.5	0	
30	1	0	
30	1.5	0	
30	2	0	
35	0	0	
35	0.5	0	
35	1	0	
35	1.5	0	
35	2	0	
40	0	0	
40	0.5	0	
40	1	0	
40	1.5	0	
40	2	0	
45	0	0	
45	0.5	0	
45	1	0	
45	1.5	0	
45	2	0	
50	0	0	
50	0.5	0	
50	1	0	
50	1.5	0	
50	2	0	
2.5	0	0	
5	0.25	0	
2.5	0.5	0	
0	0.25	0	
5	0.75	0	
2.5	1	0	
0	0.75	0	
5	1.25	0	
2.5	1.5	0	
0	1.25	0	
5	1.75	0	
2.5	2	0	
0	1.75	0	
7.5	0	0	
10	0.25	0	
7.5	0.5	0	
10	0.75	0	
7.5	1	0	
10	1.25	0	
7.5	1.5	0	
10	1.75	0	
7.5	2	0	
12.5	0	0	
15	0.25	0	
12.5	0.5	0	
15	0.75	0	
12.5	1	0	
15	1.25	0	
12.5	1.5	0	
15	1.75	0	
12.5	2	0	
17.5	0	0	
20	0.25	0	
17.5	0.5	0	
20	0.75	0	
17.5	1	0	
20	1.25	0	
17.5	1.5	0	
20	1.75	0	
17.5	2	0	
22.5	0	0	
25	0.25	0	
22.5	0.5	0	
25	0.75	0	
22.5	1	0	
25	1.25	0	
22.5	1.5	0	
25	1.75	0	
22.5	2	0	
27.5	0	0	
30	0.25	0	
27.5	0.5	0	
30	0.75	0	
27.5	1	0	
30	1.25	0	
27.5	1.5	0	
30	1.75	0	
27.5	2	0	
32.5	0	0	
35	0.25	0	
32.5	0.5	0	
35	0.75	0	
32.5	1	0	
35	1.25	0	
32.5	1.5	0	
35	1.75	0	
32.5	2	0	
37.5	0	0	
40	0.25	0	
37.5	0.5	0	
40	0.75	0	
37.5	1	0	
40	1.25	0	
37.5	1.5	0	
40	1.75	0	
37.5	2	0	
42.5	0	0	
45	0.25	0	
42.5	0.5	0	
45	0.75	0	
42.5	1	0	
45	1.25	0	
42.5	1.5	0	
45	1.75	0	
42.5	2	0	
47.5	0	0	
50	0.25	0	
47.5	0.5	0	
50	0.75	0	
47.5	1	0	
50	1.25	0	
47.5	1.5	0	
50	1.75	0	
47.5	2	0	

CELLS 40	360
8	0	5	6	1	55	56	57	58	
8	1	6	7	2	57	59	60	61	
8	2	7	8	3	60	62	63	64	
8	3	8	9	4	63	65	66	67	
8	5	10	11	6	68	69	70	56	
8	6	11	12	7	70	71	72	59	
8	7	12	13	8	72	73	74	62	
8	8	13	14	9	74	75	76	65	
8	10	15	16	11	77	78	79	69	
8	11	16	17	12	79	80	81	71	
8	12	17	18	13	81	82	83	73	
8	13	18	19	14	83	84	85	75	
8	15	20	21	16	86	87	88	78	
8	16	21	22	17	88	89	90	80	
8	17	22	23	18	90	91	92	82	
8	18	23	24	19	92	93	94	84	
8	20	25	26	21	95	96	97	87	
8	21	26	27	22	97	98	99	89	
8	22	27	28	23	99	100	101	91	
8	23	28	29	24	101	102	103	93	
8	25	30	31	26	104	105	106	96	
8	26	31	32	27	106	107	108	98	
8	27	32	33	28	108	109	110	100	
8	28	33	34	29	110	111	112	102	
8	30	35	36	31	113	114	115	105	
8	31	36	37	32	115	116	117	107	
8	32	37	38	33	117	118	119	109	
8	33	38	39	34	119	120	121	111	
8	35	40	41	36	122	123	124	114	
8	36	41	42	37	124	125	126	116	
8	37	42	43	38	126	127	128	118	
8	38	43	44	39	128	129	130	120	
8	40	45	46	41	131	132	133	123	
8	41	46	47	42	133	134	135	125	
8	42	47	48	43	135	136	137	127	
8	43	48	49	44	137	138	139	129	
8	45	50	51	46	140	141	142	132	
8	46	51	52	47	142	143	144	134	
8	47	52	53	48	144	145	146	136	
8	48	53	54	49	146	147	148	138	

CELL_TYPES	40
23
23
23
23
23
23
23
23
23
23
23
23
23
23
23
23
23
23
23
23
23
23
23
23
23
23
23
23
23
23
23
23
23
23
23
23
23
23
23
23

POINT_DATA	149
VECTORS u float
6.63716	-71.3811	0	
3.31656	-71.381	0	
0.00160352	-71.381	0	
-3.31335	-71.381	0	
-6.63395	-71.3811	0	
6.5361	-38.3454	0	
3.26177	-38.3455	0	
0.000779946	-38.3456	0	
-3.2602	-38.3455	0	
-6.53452	-38.3454	0	
5.91137	-6.97029	0	
2.94645	-6.97032	0	
-2.33018e-005	-6.97036	0	
-2.94649	-6.97032	0	
-5.9114	-6.97029	0	
4.53139	19.4226	0	
2.257	19.4227	0	
-0.000585676	19.4228	0	
-2.25817	19.4227	0	
-4.53254	19.4226	0	
2.46514	37.1302	0	
1.2272	37.1304	0	
-0.000918542	37.1306	0	
-1.22903	37.1304	0	
-2.46696	37.1302	0	
-0.00102229	43.3733	0	
-0.00102763	43.3735	0	
-0.00102874	43.3738	0	
-0.00102631	43.3735	0	
-0.00101965	43.3733	0	
-2.46696	37.1301	0	
-1.22903	37.1303	0	
-0.00091854	37.1306	0	
1.2272	37.1303	0	
2.46514	37.1301	0	
-4.53255	19.4226	0	
-2.25817	19.4227	0	
-0.000585673	19.4228	0	
2.257	19.4227	0	
4.53139	19.4226	0	
-5.9114	-6.97033	0	
-2.9465	-6.97037	0	
-2.32977e-005	-6.9704	0	
2.94645	-6.97037	0	
5.91137	-6.97033	0	
-6.53453	-38.3455	0	
-3.2602	-38.3456	0	
0.000779951	-38.3457	0	
3.26177	-38.3456	0	
6.5361	-38.3455	0	
-6.63395	-71.3811	0	
-3.31335	-71.3811	0	
0.00160353	-71.3811	0	
3.31656	-71.3811	0	
6.63717	-71.3811	0	
6.60756	-54.8098	0	
4.89786	-38.3455	0	
3.30431	-54.8096	0	
4.97683	-71.3811	0	
1.63092	-38.3456	0	
0.00133467	-54.8095	0	
1.65906	-71.381	0	
-1.62936	-38.3456	0	
-3.30164	-54.8096	0	
-1.65586	-71.381	0	
-4.89629	-38.3455	0	
-6.60488	-54.8098	0	
-4.97362	-71.3811	0	
6.27377	-22.2717	0	
4.42741	-6.97031	0	
3.13613	-22.2715	0	
1.47272	-6.97034	0	
0.000399805	-22.2714	0	
-1.47276	-6.97034	0	
-3.13534	-22.2715	0	
-4.42745	-6.97031	0	
-6.27297	-22.2717	0	
5.27644	7.08983	0	
3.39285	19.4227	0	
2.63704	7.08979	0	
1.12776	19.4227	0	
-0.000281417	7.08975	0	
-1.12893	19.4227	0	
-2.6376	7.08979	0	
-3.39401	19.4227	0	
-5.277	7.08983	0	
3.53937	29.573	0	
1.84539	37.1303	0	
1.76856	29.5728	0	
0.61288	37.1305	0	
-0.000727918	29.5727	0	
-0.614715	37.1305	0	
-1.77002	29.5728	0	
-1.84721	37.1303	0	
-3.54083	29.573	0	
1.24715	41.8005	0	
-0.00102497	43.3734	0	
0.622823	41.8002	0	
-0.00102815	43.3736	0	
-0.000948878	41.8	0	
-0.00102749	43.3736	0	
-0.624722	41.8002	0	
-0.00102298	43.3734	0	
-1.24905	41.8005	0	
-1.24905	41.8005	0	
-1.84721	37.1303	0	
-0.624724	41.8002	0	
-0.614716	37.1304	0	
-0.000948876	41.8	0	
0.612881	37.1304	0	
0.622824	41.8002	0	
1.84539	37.1303	0	
1.24716	41.8005	0	
-3.54083	29.573	0	
-3.39401	19.4226	0	
-1.77002	29.5728	0	
-1.12893	19.4227	0	
-0.000727915	29.5727	0	
1.12776	19.4227	0	
1.76856	29.5728	0	
3.39285	19.4226	0	
3.53938	29.573	0	
-5.27701	7.08979	0	
-4.42745	-6.97035	0	
-2.63761	7.08975	0	
-1.47276	-6.97038	0	
-0.000281414	7.08972	0	
1.47272	-6.97038	0	
2.63704	7.08975	0	
4.42741	-6.97035	0	
5.27644	7.08979	0	
-6.27297	-22.2717	0	
-4.89629	-38.3455	0	
-3.13534	-22.2716	0	
-1.62936	-38.3456	0	
0.00039981	-22.2715	0	
1.63092	-38.3456	0	
3.13614	-22.2716	0	
4.89786	-38.3455	0	
6.27377	-22.2717	0	
-6.60489	-54.8098	0	
-4.97362	-71.3811	0	
-3.30164	-54.8097	0	
-1.65586	-71.3811	0	
0.00133467	-54.8095	0	
1.65906	-71.3811	0	
3.30431	-54.8097	0	
4.97683	-71.3811	0	
6.60756	-54.8098	0	
