# vtk DataFile Version 4.1
vtk output
ASCII
DATASET UNSTRUCTURED_GRID

POINTS	149	float
0	0	0	
0	0.5	0	
0	1	0	
0	1.5	0	
0	2	0	
5	0	0	
5	0.5	0	
5	1	0	
5	1.5	0	
5	2	0	
10	0	0	
10	0.5	0	
10	1	0	
10	1.5	0	
10	2	0	
15	0	0	
15	0.5	0	
15	1	0	
15	1.5	0	
15	2	0	
20	0	0	
20	0.5	0	
20	1	0	
20	1.5	0	
20	2	0	
25	0	0	
25	0.5	0	
25	1	0	
25	1.5	0	
25	2	0	
30	0	0	
30	0.5	0	
30	1	0	
30	1.5	0	
30	2	0	
35	0	0	
35	0.5	0	
35	1	0	
35	1.5	0	
35	2	0	
40	0	0	
40	0.5	0	
40	1	0	
40	1.5	0	
40	2	0	
45	0	0	
45	0.5	0	
45	1	0	
45	1.5	0	
45	2	0	
50	0	0	
50	0.5	0	
50	1	0	
50	1.5	0	
50	2	0	
2.5	0	0	
5	0.25	0	
2.5	0.5	0	
0	0.25	0	
5	0.75	0	
2.5	1	0	
0	0.75	0	
5	1.25	0	
2.5	1.5	0	
0	1.25	0	
5	1.75	0	
2.5	2	0	
0	1.75	0	
7.5	0	0	
10	0.25	0	
7.5	0.5	0	
10	0.75	0	
7.5	1	0	
10	1.25	0	
7.5	1.5	0	
10	1.75	0	
7.5	2	0	
12.5	0	0	
15	0.25	0	
12.5	0.5	0	
15	0.75	0	
12.5	1	0	
15	1.25	0	
12.5	1.5	0	
15	1.75	0	
12.5	2	0	
17.5	0	0	
20	0.25	0	
17.5	0.5	0	
20	0.75	0	
17.5	1	0	
20	1.25	0	
17.5	1.5	0	
20	1.75	0	
17.5	2	0	
22.5	0	0	
25	0.25	0	
22.5	0.5	0	
25	0.75	0	
22.5	1	0	
25	1.25	0	
22.5	1.5	0	
25	1.75	0	
22.5	2	0	
27.5	0	0	
30	0.25	0	
27.5	0.5	0	
30	0.75	0	
27.5	1	0	
30	1.25	0	
27.5	1.5	0	
30	1.75	0	
27.5	2	0	
32.5	0	0	
35	0.25	0	
32.5	0.5	0	
35	0.75	0	
32.5	1	0	
35	1.25	0	
32.5	1.5	0	
35	1.75	0	
32.5	2	0	
37.5	0	0	
40	0.25	0	
37.5	0.5	0	
40	0.75	0	
37.5	1	0	
40	1.25	0	
37.5	1.5	0	
40	1.75	0	
37.5	2	0	
42.5	0	0	
45	0.25	0	
42.5	0.5	0	
45	0.75	0	
42.5	1	0	
45	1.25	0	
42.5	1.5	0	
45	1.75	0	
42.5	2	0	
47.5	0	0	
50	0.25	0	
47.5	0.5	0	
50	0.75	0	
47.5	1	0	
50	1.25	0	
47.5	1.5	0	
50	1.75	0	
47.5	2	0	

CELLS 40	360
8	0	5	6	1	55	56	57	58	
8	1	6	7	2	57	59	60	61	
8	2	7	8	3	60	62	63	64	
8	3	8	9	4	63	65	66	67	
8	5	10	11	6	68	69	70	56	
8	6	11	12	7	70	71	72	59	
8	7	12	13	8	72	73	74	62	
8	8	13	14	9	74	75	76	65	
8	10	15	16	11	77	78	79	69	
8	11	16	17	12	79	80	81	71	
8	12	17	18	13	81	82	83	73	
8	13	18	19	14	83	84	85	75	
8	15	20	21	16	86	87	88	78	
8	16	21	22	17	88	89	90	80	
8	17	22	23	18	90	91	92	82	
8	18	23	24	19	92	93	94	84	
8	20	25	26	21	95	96	97	87	
8	21	26	27	22	97	98	99	89	
8	22	27	28	23	99	100	101	91	
8	23	28	29	24	101	102	103	93	
8	25	30	31	26	104	105	106	96	
8	26	31	32	27	106	107	108	98	
8	27	32	33	28	108	109	110	100	
8	28	33	34	29	110	111	112	102	
8	30	35	36	31	113	114	115	105	
8	31	36	37	32	115	116	117	107	
8	32	37	38	33	117	118	119	109	
8	33	38	39	34	119	120	121	111	
8	35	40	41	36	122	123	124	114	
8	36	41	42	37	124	125	126	116	
8	37	42	43	38	126	127	128	118	
8	38	43	44	39	128	129	130	120	
8	40	45	46	41	131	132	133	123	
8	41	46	47	42	133	134	135	125	
8	42	47	48	43	135	136	137	127	
8	43	48	49	44	137	138	139	129	
8	45	50	51	46	140	141	142	132	
8	46	51	52	47	142	143	144	134	
8	47	52	53	48	144	145	146	136	
8	48	53	54	49	146	147	148	138	

CELL_TYPES	40
23
23
23
23
23
23
23
23
23
23
23
23
23
23
23
23
23
23
23
23
23
23
23
23
23
23
23
23
23
23
23
23
23
23
23
23
23
23
23
23

POINT_DATA	149
VECTORS u float
-0.0315424	-0.0361433	0	
-0.0199321	-0.0165875	0	
-0.0182745	-0.0165894	0	
-0.0166167	-0.0165873	0	
-0.0248558	-0.0361429	0	
-0.0210272	-0.0322268	0	
0.000162404	0.00688861	0	
0.0014764	0.00688773	0	
0.00279087	0.00688855	0	
-0.0157185	-0.0322269	0	
-0.0193306	-0.0410557	0	
0.00094256	-0.00194028	0	
0.0013774	-0.00194116	0	
0.00181266	-0.00194028	0	
-0.0176133	-0.0410558	0	
-0.0181393	-0.0418294	0	
0.00149599	-0.0027135	0	
0.00130672	-0.00271392	0	
0.00111787	-0.0027135	0	
-0.018946	-0.0418294	0	
-0.0180002	-0.0389743	0	
0.00154782	0.000142	0	
0.00126433	0.000141985	0	
0.000981247	0.000142	0	
-0.0191698	-0.0389743	0	
-0.0185992	-0.0373556	0	
0.0012504	0.00176076	0	
0.0012502	0.00176089	0	
0.00125041	0.00176076	0	
-0.0185991	-0.0373556	0	
-0.0191698	-0.0389744	0	
0.00098124	0.000141916	0	
0.00126433	0.000141901	0	
0.00154783	0.000141916	0	
-0.0180002	-0.0389744	0	
-0.018946	-0.0418295	0	
0.00111786	-0.00271364	0	
0.00130672	-0.00271406	0	
0.00149599	-0.00271364	0	
-0.0181392	-0.0418295	0	
-0.0176133	-0.0410559	0	
0.00181266	-0.00194046	0	
0.0013774	-0.00194133	0	
0.000942564	-0.00194046	0	
-0.0193306	-0.0410559	0	
-0.0157185	-0.0322271	0	
0.00279087	0.00688835	0	
0.0014764	0.00688752	0	
0.000162406	0.00688841	0	
-0.0210272	-0.032227	0	
-0.0248558	-0.0361431	0	
-0.0166167	-0.0165875	0	
-0.0182745	-0.0165896	0	
-0.0199321	-0.0165877	0	
-0.0315424	-0.0361435	0	
-0.0317004	-0.0456604	0	
0.0200345	0.0485959	0	
-0.0205539	-0.0273968	0	
-0.0105027	0.00426729	0	
0.0213592	0.0485949	0	
-0.0189955	-0.0273964	0	
-0.00883295	0.00426471	0	
0.0226716	0.0485949	0	
-0.017437	-0.0273967	0	
-0.00717711	0.00426483	0	
0.0239973	0.0485958	0	
-0.0254515	-0.0456603	0	
-0.00550683	0.00426762	0	
-0.0304547	-0.0586237	0	
0.0212684	0.039767	0	
-0.0199919	-0.0403594	0	
0.0216984	0.039766	0	
-0.0191093	-0.0403585	0	
0.0221344	0.039766	0	
-0.018227	-0.0403594	0	
0.0225653	0.039767	0	
-0.0269255	-0.0586237	0	
-0.0289314	-0.0630707	0	
0.0221402	0.0389936	0	
-0.0192741	-0.0448069	0	
0.0219395	0.0389929	0	
-0.0191941	-0.0448064	0	
0.0217519	0.0389929	0	
-0.0191144	-0.0448069	0	
0.0215521	0.0389936	0	
-0.0286185	-0.0630707	0	
-0.0282626	-0.0613392	0	
0.0222362	0.0418489	0	
-0.0189679	-0.043076	0	
0.0219444	0.0418486	0	
-0.0192507	-0.0430759	0	
0.0216622	0.0418486	0	
-0.0195337	-0.043076	0	
0.0213713	0.0418489	0	
-0.0294003	-0.0613392	0	
-0.0285369	-0.0586154	0	
0.0217896	0.0434676	0	
-0.0191183	-0.0403523	0	
0.0217892	0.0434674	0	
-0.0192789	-0.0403526	0	
0.0217892	0.0434674	0	
-0.0194398	-0.0403523	0	
0.0217896	0.0434676	0	
-0.0291825	-0.0586154	0	
-0.0291826	-0.0586154	0	
0.0213713	0.0418488	0	
-0.0194399	-0.0403524	0	
0.0216622	0.0418485	0	
-0.0192789	-0.0403526	0	
0.0219444	0.0418485	0	
-0.0191183	-0.0403524	0	
0.0222362	0.0418488	0	
-0.0285369	-0.0586154	0	
-0.0294003	-0.0613394	0	
0.0215521	0.0389935	0	
-0.0195337	-0.0430761	0	
0.0217519	0.0389928	0	
-0.0192507	-0.043076	0	
0.0219395	0.0389928	0	
-0.0189679	-0.0430761	0	
0.0221402	0.0389935	0	
-0.0282626	-0.0613394	0	
-0.0286185	-0.0630708	0	
0.0225653	0.0397668	0	
-0.0191144	-0.0448071	0	
0.0221344	0.0397658	0	
-0.0191941	-0.0448066	0	
0.0216984	0.0397658	0	
-0.0192741	-0.0448071	0	
0.0212684	0.0397668	0	
-0.0289314	-0.0630708	0	
-0.0269255	-0.0586239	0	
0.0239973	0.0485956	0	
-0.018227	-0.0403596	0	
0.0226716	0.0485947	0	
-0.0191093	-0.0403587	0	
0.0213592	0.0485947	0	
-0.0199919	-0.0403596	0	
0.0200345	0.0485957	0	
-0.0304547	-0.0586239	0	
-0.0254515	-0.0456605	0	
-0.00550683	0.00426741	0	
-0.017437	-0.0273969	0	
-0.0071771	0.00426462	0	
-0.0189955	-0.0273966	0	
-0.00883295	0.0042645	0	
-0.0205539	-0.027397	0	
-0.0105027	0.00426708	0	
-0.0317004	-0.0456606	0	
