# vtk DataFile Version 4.1
vtk output
ASCII
DATASET UNSTRUCTURED_GRID

POINTS	149	float
0	0	0	
0	0.5	0	
0	1	0	
0	1.5	0	
0	2	0	
5	0	0	
5	0.5	0	
5	1	0	
5	1.5	0	
5	2	0	
10	0	0	
10	0.5	0	
10	1	0	
10	1.5	0	
10	2	0	
15	0	0	
15	0.5	0	
15	1	0	
15	1.5	0	
15	2	0	
20	0	0	
20	0.5	0	
20	1	0	
20	1.5	0	
20	2	0	
25	0	0	
25	0.5	0	
25	1	0	
25	1.5	0	
25	2	0	
30	0	0	
30	0.5	0	
30	1	0	
30	1.5	0	
30	2	0	
35	0	0	
35	0.5	0	
35	1	0	
35	1.5	0	
35	2	0	
40	0	0	
40	0.5	0	
40	1	0	
40	1.5	0	
40	2	0	
45	0	0	
45	0.5	0	
45	1	0	
45	1.5	0	
45	2	0	
50	0	0	
50	0.5	0	
50	1	0	
50	1.5	0	
50	2	0	
2.5	0	0	
5	0.25	0	
2.5	0.5	0	
0	0.25	0	
5	0.75	0	
2.5	1	0	
0	0.75	0	
5	1.25	0	
2.5	1.5	0	
0	1.25	0	
5	1.75	0	
2.5	2	0	
0	1.75	0	
7.5	0	0	
10	0.25	0	
7.5	0.5	0	
10	0.75	0	
7.5	1	0	
10	1.25	0	
7.5	1.5	0	
10	1.75	0	
7.5	2	0	
12.5	0	0	
15	0.25	0	
12.5	0.5	0	
15	0.75	0	
12.5	1	0	
15	1.25	0	
12.5	1.5	0	
15	1.75	0	
12.5	2	0	
17.5	0	0	
20	0.25	0	
17.5	0.5	0	
20	0.75	0	
17.5	1	0	
20	1.25	0	
17.5	1.5	0	
20	1.75	0	
17.5	2	0	
22.5	0	0	
25	0.25	0	
22.5	0.5	0	
25	0.75	0	
22.5	1	0	
25	1.25	0	
22.5	1.5	0	
25	1.75	0	
22.5	2	0	
27.5	0	0	
30	0.25	0	
27.5	0.5	0	
30	0.75	0	
27.5	1	0	
30	1.25	0	
27.5	1.5	0	
30	1.75	0	
27.5	2	0	
32.5	0	0	
35	0.25	0	
32.5	0.5	0	
35	0.75	0	
32.5	1	0	
35	1.25	0	
32.5	1.5	0	
35	1.75	0	
32.5	2	0	
37.5	0	0	
40	0.25	0	
37.5	0.5	0	
40	0.75	0	
37.5	1	0	
40	1.25	0	
37.5	1.5	0	
40	1.75	0	
37.5	2	0	
42.5	0	0	
45	0.25	0	
42.5	0.5	0	
45	0.75	0	
42.5	1	0	
45	1.25	0	
42.5	1.5	0	
45	1.75	0	
42.5	2	0	
47.5	0	0	
50	0.25	0	
47.5	0.5	0	
50	0.75	0	
47.5	1	0	
50	1.25	0	
47.5	1.5	0	
50	1.75	0	
47.5	2	0	

CELLS 40	360
8	0	5	6	1	55	56	57	58	
8	1	6	7	2	57	59	60	61	
8	2	7	8	3	60	62	63	64	
8	3	8	9	4	63	65	66	67	
8	5	10	11	6	68	69	70	56	
8	6	11	12	7	70	71	72	59	
8	7	12	13	8	72	73	74	62	
8	8	13	14	9	74	75	76	65	
8	10	15	16	11	77	78	79	69	
8	11	16	17	12	79	80	81	71	
8	12	17	18	13	81	82	83	73	
8	13	18	19	14	83	84	85	75	
8	15	20	21	16	86	87	88	78	
8	16	21	22	17	88	89	90	80	
8	17	22	23	18	90	91	92	82	
8	18	23	24	19	92	93	94	84	
8	20	25	26	21	95	96	97	87	
8	21	26	27	22	97	98	99	89	
8	22	27	28	23	99	100	101	91	
8	23	28	29	24	101	102	103	93	
8	25	30	31	26	104	105	106	96	
8	26	31	32	27	106	107	108	98	
8	27	32	33	28	108	109	110	100	
8	28	33	34	29	110	111	112	102	
8	30	35	36	31	113	114	115	105	
8	31	36	37	32	115	116	117	107	
8	32	37	38	33	117	118	119	109	
8	33	38	39	34	119	120	121	111	
8	35	40	41	36	122	123	124	114	
8	36	41	42	37	124	125	126	116	
8	37	42	43	38	126	127	128	118	
8	38	43	44	39	128	129	130	120	
8	40	45	46	41	131	132	133	123	
8	41	46	47	42	133	134	135	125	
8	42	47	48	43	135	136	137	127	
8	43	48	49	44	137	138	139	129	
8	45	50	51	46	140	141	142	132	
8	46	51	52	47	142	143	144	134	
8	47	52	53	48	144	145	146	136	
8	48	53	54	49	146	147	148	138	

CELL_TYPES	40
23
23
23
23
23
23
23
23
23
23
23
23
23
23
23
23
23
23
23
23
23
23
23
23
23
23
23
23
23
23
23
23
23
23
23
23
23
23
23
23

POINT_DATA	149
VECTORS u float
-0.0189854	-0.0482016	0	
-0.012145	-0.0271849	0	
-0.0115063	-0.0271851	0	
-0.0108677	-0.0271848	0	
-0.0164224	-0.0482014	0	
-0.0127027	-0.0334668	0	
0.000289966	0.00856179	0	
0.000882419	0.00855985	0	
0.00147492	0.00856245	0	
-0.0103222	-0.0334655	0	
-0.0124251	-0.0387571	0	
0.000423718	0.00326791	0	
0.000876206	0.00326462	0	
0.00132873	0.00326837	0	
-0.0106123	-0.0387561	0	
-0.0121006	-0.0424652	0	
0.000582745	-0.000440257	0	
0.000871774	-0.000443596	0	
0.00116084	-0.000439954	0	
-0.0109456	-0.0424645	0	
-0.0117995	-0.0445772	0	
0.000731853	-0.00255127	0	
0.000869116	-0.00255429	0	
0.00100642	-0.00255112	0	
-0.011252	-0.0445769	0	
-0.0115265	-0.0452531	0	
0.000868333	-0.00322675	0	
0.000868231	-0.00322965	0	
0.000868166	-0.00322675	0	
-0.0115268	-0.0452531	0	
-0.0112516	-0.0445752	0	
0.00100658	-0.00254946	0	
0.000869116	-0.00255263	0	
0.000731687	-0.00254961	0	
-0.0117999	-0.0445755	0	
-0.0109452	-0.0424612	0	
0.00116101	-0.000436633	0	
0.000871774	-0.000440275	0	
0.000582579	-0.000436937	0	
-0.0121009	-0.0424618	0	
-0.0106119	-0.0387512	0	
0.0013289	0.00327335	0	
0.000876206	0.0032696	0	
0.000423553	0.00327289	0	
-0.0124254	-0.0387521	0	
-0.0103219	-0.0334589	0	
0.00147508	0.00856909	0	
0.000882419	0.00856649	0	
0.0002898	0.00856843	0	
-0.012703	-0.0334602	0	
-0.016422	-0.0481931	0	
-0.0108675	-0.0271765	0	
-0.0115063	-0.0271768	0	
-0.0121452	-0.0271766	0	
-0.0189857	-0.0481933	0	
-0.0189865	-0.0528821	0	
0.0124373	0.0535751	0	
-0.012186	-0.0333549	0	
-0.00624325	-0.00467914	0	
0.013032	0.0535709	0	
-0.0115591	-0.0333555	0	
-0.00560271	-0.00467969	0	
0.0136241	0.0535712	0	
-0.0109322	-0.0333543	0	
-0.00496429	-0.00467963	0	
0.0142189	0.0535761	0	
-0.016476	-0.052881	0	
-0.00432382	-0.00467895	0	
-0.018796	-0.0587942	0	
0.0126425	0.0482827	0	
-0.0120948	-0.0392733	0	
0.0130956	0.048276	0	
-0.0115662	-0.039276	0	
0.0135481	0.0482762	0	
-0.0110376	-0.0392728	0	
0.0140013	0.0482834	0	
-0.0166807	-0.0587931	0	
-0.0184853	-0.0633197	0	
0.0128841	0.0445746	0	
-0.0119424	-0.0438003	0	
0.0131729	0.0445679	0	
-0.0115715	-0.0438036	0	
0.013462	0.044568	0	
-0.0112007	-0.0437999	0	
0.0137508	0.0445751	0	
-0.0170021	-0.0633189	0	
-0.0181697	-0.0662126	0	
0.0131092	0.0424632	0	
-0.0117865	-0.0466925	0	
0.0132461	0.0424571	0	
-0.0115751	-0.0466956	0	
0.0133834	0.0424572	0	
-0.0113637	-0.0466923	0	
0.0135204	0.0424634	0	
-0.0173247	-0.0662122	0	
-0.0178843	-0.0675873	0	
0.013314	0.0417875	0	
-0.0116445	-0.0480663	0	
0.0133139	0.0417817	0	
-0.0115769	-0.0480692	0	
0.0133138	0.0417817	0	
-0.0115092	-0.0480662	0	
0.0133138	0.0417875	0	
-0.0176137	-0.0675872	0	
-0.0176134	-0.0675863	0	
0.0135207	0.0424651	0	
-0.011509	-0.0480654	0	
0.0133835	0.0424588	0	
-0.0115769	-0.0480684	0	
0.013246	0.0424588	0	
-0.0116447	-0.0480655	0	
0.0131089	0.0424649	0	
-0.0178846	-0.0675865	0	
-0.0173243	-0.0662097	0	
0.0137511	0.0445784	0	
-0.0113636	-0.0466898	0	
0.013462	0.0445713	0	
-0.0115751	-0.0466931	0	
0.0131728	0.0445712	0	
-0.0117866	-0.04669	0	
0.0128839	0.0445779	0	
-0.0181701	-0.0662102	0	
-0.0170017	-0.0633148	0	
0.0140016	0.0482884	0	
-0.0112005	-0.0437958	0	
0.0135482	0.0482812	0	
-0.0115715	-0.0437994	0	
0.0130955	0.048281	0	
-0.0119426	-0.0437961	0	
0.0126422	0.0482877	0	
-0.0184856	-0.0633155	0	
-0.0166804	-0.0587873	0	
0.0142191	0.0535827	0	
-0.0110375	-0.039267	0	
0.0136242	0.0535779	0	
-0.0115662	-0.0392702	0	
0.0130319	0.0535775	0	
-0.012095	-0.0392675	0	
0.0124371	0.0535817	0	
-0.0187963	-0.0587884	0	
-0.0164757	-0.0528735	0	
-0.00432357	-0.00467066	0	
-0.010932	-0.0333468	0	
-0.00496421	-0.00467133	0	
-0.0115591	-0.033348	0	
-0.00560279	-0.0046714	0	
-0.0121862	-0.0333474	0	
-0.0062435	-0.00467084	0	
-0.0189868	-0.0528747	0	
