# vtk DataFile Version 4.1
vtk output
ASCII
DATASET UNSTRUCTURED_GRID

POINTS	149	float
0	0	0	
0	0.5	0	
0	1	0	
0	1.5	0	
0	2	0	
5	0	0	
5	0.5	0	
5	1	0	
5	1.5	0	
5	2	0	
10	0	0	
10	0.5	0	
10	1	0	
10	1.5	0	
10	2	0	
15	0	0	
15	0.5	0	
15	1	0	
15	1.5	0	
15	2	0	
20	0	0	
20	0.5	0	
20	1	0	
20	1.5	0	
20	2	0	
25	0	0	
25	0.5	0	
25	1	0	
25	1.5	0	
25	2	0	
30	0	0	
30	0.5	0	
30	1	0	
30	1.5	0	
30	2	0	
35	0	0	
35	0.5	0	
35	1	0	
35	1.5	0	
35	2	0	
40	0	0	
40	0.5	0	
40	1	0	
40	1.5	0	
40	2	0	
45	0	0	
45	0.5	0	
45	1	0	
45	1.5	0	
45	2	0	
50	0	0	
50	0.5	0	
50	1	0	
50	1.5	0	
50	2	0	
2.5	0	0	
5	0.25	0	
2.5	0.5	0	
0	0.25	0	
5	0.75	0	
2.5	1	0	
0	0.75	0	
5	1.25	0	
2.5	1.5	0	
0	1.25	0	
5	1.75	0	
2.5	2	0	
0	1.75	0	
7.5	0	0	
10	0.25	0	
7.5	0.5	0	
10	0.75	0	
7.5	1	0	
10	1.25	0	
7.5	1.5	0	
10	1.75	0	
7.5	2	0	
12.5	0	0	
15	0.25	0	
12.5	0.5	0	
15	0.75	0	
12.5	1	0	
15	1.25	0	
12.5	1.5	0	
15	1.75	0	
12.5	2	0	
17.5	0	0	
20	0.25	0	
17.5	0.5	0	
20	0.75	0	
17.5	1	0	
20	1.25	0	
17.5	1.5	0	
20	1.75	0	
17.5	2	0	
22.5	0	0	
25	0.25	0	
22.5	0.5	0	
25	0.75	0	
22.5	1	0	
25	1.25	0	
22.5	1.5	0	
25	1.75	0	
22.5	2	0	
27.5	0	0	
30	0.25	0	
27.5	0.5	0	
30	0.75	0	
27.5	1	0	
30	1.25	0	
27.5	1.5	0	
30	1.75	0	
27.5	2	0	
32.5	0	0	
35	0.25	0	
32.5	0.5	0	
35	0.75	0	
32.5	1	0	
35	1.25	0	
32.5	1.5	0	
35	1.75	0	
32.5	2	0	
37.5	0	0	
40	0.25	0	
37.5	0.5	0	
40	0.75	0	
37.5	1	0	
40	1.25	0	
37.5	1.5	0	
40	1.75	0	
37.5	2	0	
42.5	0	0	
45	0.25	0	
42.5	0.5	0	
45	0.75	0	
42.5	1	0	
45	1.25	0	
42.5	1.5	0	
45	1.75	0	
42.5	2	0	
47.5	0	0	
50	0.25	0	
47.5	0.5	0	
50	0.75	0	
47.5	1	0	
50	1.25	0	
47.5	1.5	0	
50	1.75	0	
47.5	2	0	

CELLS 40	360
8	0	5	6	1	55	56	57	58	
8	1	6	7	2	57	59	60	61	
8	2	7	8	3	60	62	63	64	
8	3	8	9	4	63	65	66	67	
8	5	10	11	6	68	69	70	56	
8	6	11	12	7	70	71	72	59	
8	7	12	13	8	72	73	74	62	
8	8	13	14	9	74	75	76	65	
8	10	15	16	11	77	78	79	69	
8	11	16	17	12	79	80	81	71	
8	12	17	18	13	81	82	83	73	
8	13	18	19	14	83	84	85	75	
8	15	20	21	16	86	87	88	78	
8	16	21	22	17	88	89	90	80	
8	17	22	23	18	90	91	92	82	
8	18	23	24	19	92	93	94	84	
8	20	25	26	21	95	96	97	87	
8	21	26	27	22	97	98	99	89	
8	22	27	28	23	99	100	101	91	
8	23	28	29	24	101	102	103	93	
8	25	30	31	26	104	105	106	96	
8	26	31	32	27	106	107	108	98	
8	27	32	33	28	108	109	110	100	
8	28	33	34	29	110	111	112	102	
8	30	35	36	31	113	114	115	105	
8	31	36	37	32	115	116	117	107	
8	32	37	38	33	117	118	119	109	
8	33	38	39	34	119	120	121	111	
8	35	40	41	36	122	123	124	114	
8	36	41	42	37	124	125	126	116	
8	37	42	43	38	126	127	128	118	
8	38	43	44	39	128	129	130	120	
8	40	45	46	41	131	132	133	123	
8	41	46	47	42	133	134	135	125	
8	42	47	48	43	135	136	137	127	
8	43	48	49	44	137	138	139	129	
8	45	50	51	46	140	141	142	132	
8	46	51	52	47	142	143	144	134	
8	47	52	53	48	144	145	146	136	
8	48	53	54	49	146	147	148	138	

CELL_TYPES	40
23
23
23
23
23
23
23
23
23
23
23
23
23
23
23
23
23
23
23
23
23
23
23
23
23
23
23
23
23
23
23
23
23
23
23
23
23
23
23
23

POINT_DATA	149
VECTORS u float
0	0	0	
3.37187	-0.0523945	0	
6.61319	-0.0951953	0	
9.82388	-0.115755	0	
13.0909	-0.119013	0	
1.7198	-29.7086	0	
4.24976	-29.7185	0	
6.73255	-29.7272	0	
9.21596	-29.7304	0	
11.7433	-29.7304	0	
5.09763	-47.1204	0	
5.98407	-47.1225	0	
6.85632	-47.1243	0	
7.72919	-47.1238	0	
8.61706	-47.123	0	
9.06123	-46.2402	0	
8.00308	-46.2411	0	
6.96526	-46.2419	0	
5.92755	-46.2411	0	
4.86977	-46.2404	0	
12.1838	-27.6349	0	
9.59708	-27.6354	0	
7.05805	-27.6358	0	
4.51903	-27.6354	0	
1.9324	-27.6349	0	
13.3374	1.53699	0	
10.208	1.53703	0	
7.13564	1.53706	0	
4.06331	1.53703	0	
0.933884	1.53699	0	
12.133	30.2104	0	
9.64314	30.2109	0	
7.19843	30.2114	0	
4.7537	30.2109	0	
2.26382	30.2104	0	
9.06185	47.5854	0	
8.14591	47.5862	0	
7.24674	47.587	0	
6.34759	47.5862	0	
5.43193	47.5854	0	
5.29931	47.1533	0	
6.29831	47.1552	0	
7.2805	47.1563	0	
8.26303	47.1554	0	
9.26376	47.1546	0	
2.26105	29.0641	0	
4.802	29.0726	0	
7.2999	29.0779	0	
9.79931	29.079	0	
12.3453	29.0786	0	
1.07284	0	0	
4.23065	0.0516026	0	
7.31367	0.0879752	0	
10.3877	0.104171	0	
13.5153	0.106481	0	
0.741316	-15.8822	0	
2.98654	-29.7136	0	
3.70292	-15.873	0	
1.69658	-0.0264069	0	
5.49144	-29.7226	0	
6.66294	-15.8643	0	
4.99765	-0.074653	0	
7.97288	-29.7284	0	
9.62153	-15.8604	0	
8.21818	-0.106427	0	
10.4764	-29.7303	0	
12.5846	-15.8599	0	
11.4519	-0.117855	0	
3.3192	-40.4781	0	
5.54255	-47.1215	0	
5.06016	-40.4762	0	
6.42086	-47.1235	0	
6.79712	-40.4747	0	
7.29242	-47.1241	0	
8.53335	-40.4751	0	
8.17183	-47.1235	0	
10.2727	-40.4758	0	
7.08893	-49.1175	0	
8.5304	-46.2407	0	
7.00098	-49.1165	0	
7.48356	-46.2415	0	
6.9131	-49.1157	0	
6.44693	-46.2415	0	
6.8251	-49.1165	0	
5.40032	-46.2408	0	
6.73675	-49.1173	0	
10.7311	-38.8521	0	
10.8866	-27.6352	0	
8.87034	-38.8515	0	
8.3263	-27.6356	0	
7.0136	-38.8509	0	
5.78983	-27.6356	0	
5.15686	-38.8515	0	
3.22959	-27.6352	0	
3.29604	-38.8522	0	
12.9276	-13.7288	0	
11.768	1.53701	0	
10.01	-13.7285	0	
8.67026	1.53704	0	
7.09868	-13.7283	0	
5.60101	1.53704	0	
4.18738	-13.7285	0	
2.50325	1.53701	0	
1.26977	-13.7288	0	
12.8981	16.6745	0	
10.8844	30.2107	0	
10.0304	16.6742	0	
8.41957	30.2111	0	
7.16881	16.6739	0	
5.97728	30.2111	0	
4.30722	16.6742	0	
3.51244	30.2107	0	
1.43949	16.6745	0	
10.6961	40.869	0	
8.60251	47.5858	0	
8.95841	40.8683	0	
7.69586	47.5866	0	
7.22435	40.8677	0	
6.7976	47.5865	0	
5.49031	40.8684	0	
5.89109	47.5858	0	
3.75258	40.869	0	
7.17928	49.7689	0	
5.80042	47.1543	0	
7.2226	49.768	0	
6.78997	47.1558	0	
7.26559	49.7672	0	
7.77132	47.1559	0	
7.30855	49.7681	0	
8.76196	47.1551	0	
7.35157	49.7689	0	
3.67924	40.0487	0	
3.53477	29.0683	0	
5.48861	40.0471	0	
6.05193	29.0749	0	
7.29307	40.0462	0	
8.54826	29.0781	0	
9.0971	40.0469	0	
11.0685	29.0787	0	
10.9047	40.0477	0	
1.50856	15.3303	0	
2.65847	0.0262316	0	
4.41242	15.3228	0	
5.77502	0.0707358	0	
7.30697	15.3178	0	
8.84969	0.0970334	0	
10.1993	15.3161	0	
11.9469	0.105794	0	
13.0974	15.3162	0	
