# vtk DataFile Version 4.1
vtk output
ASCII
DATASET UNSTRUCTURED_GRID

POINTS	149	float
0	0	0	
0	0.5	0	
0	1	0	
0	1.5	0	
0	2	0	
5	0	0	
5	0.5	0	
5	1	0	
5	1.5	0	
5	2	0	
10	0	0	
10	0.5	0	
10	1	0	
10	1.5	0	
10	2	0	
15	0	0	
15	0.5	0	
15	1	0	
15	1.5	0	
15	2	0	
20	0	0	
20	0.5	0	
20	1	0	
20	1.5	0	
20	2	0	
25	0	0	
25	0.5	0	
25	1	0	
25	1.5	0	
25	2	0	
30	0	0	
30	0.5	0	
30	1	0	
30	1.5	0	
30	2	0	
35	0	0	
35	0.5	0	
35	1	0	
35	1.5	0	
35	2	0	
40	0	0	
40	0.5	0	
40	1	0	
40	1.5	0	
40	2	0	
45	0	0	
45	0.5	0	
45	1	0	
45	1.5	0	
45	2	0	
50	0	0	
50	0.5	0	
50	1	0	
50	1.5	0	
50	2	0	
2.5	0	0	
5	0.25	0	
2.5	0.5	0	
0	0.25	0	
5	0.75	0	
2.5	1	0	
0	0.75	0	
5	1.25	0	
2.5	1.5	0	
0	1.25	0	
5	1.75	0	
2.5	2	0	
0	1.75	0	
7.5	0	0	
10	0.25	0	
7.5	0.5	0	
10	0.75	0	
7.5	1	0	
10	1.25	0	
7.5	1.5	0	
10	1.75	0	
7.5	2	0	
12.5	0	0	
15	0.25	0	
12.5	0.5	0	
15	0.75	0	
12.5	1	0	
15	1.25	0	
12.5	1.5	0	
15	1.75	0	
12.5	2	0	
17.5	0	0	
20	0.25	0	
17.5	0.5	0	
20	0.75	0	
17.5	1	0	
20	1.25	0	
17.5	1.5	0	
20	1.75	0	
17.5	2	0	
22.5	0	0	
25	0.25	0	
22.5	0.5	0	
25	0.75	0	
22.5	1	0	
25	1.25	0	
22.5	1.5	0	
25	1.75	0	
22.5	2	0	
27.5	0	0	
30	0.25	0	
27.5	0.5	0	
30	0.75	0	
27.5	1	0	
30	1.25	0	
27.5	1.5	0	
30	1.75	0	
27.5	2	0	
32.5	0	0	
35	0.25	0	
32.5	0.5	0	
35	0.75	0	
32.5	1	0	
35	1.25	0	
32.5	1.5	0	
35	1.75	0	
32.5	2	0	
37.5	0	0	
40	0.25	0	
37.5	0.5	0	
40	0.75	0	
37.5	1	0	
40	1.25	0	
37.5	1.5	0	
40	1.75	0	
37.5	2	0	
42.5	0	0	
45	0.25	0	
42.5	0.5	0	
45	0.75	0	
42.5	1	0	
45	1.25	0	
42.5	1.5	0	
45	1.75	0	
42.5	2	0	
47.5	0	0	
50	0.25	0	
47.5	0.5	0	
50	0.75	0	
47.5	1	0	
50	1.25	0	
47.5	1.5	0	
50	1.75	0	
47.5	2	0	

CELLS 40	360
8	0	5	6	1	55	56	57	58	
8	1	6	7	2	57	59	60	61	
8	2	7	8	3	60	62	63	64	
8	3	8	9	4	63	65	66	67	
8	5	10	11	6	68	69	70	56	
8	6	11	12	7	70	71	72	59	
8	7	12	13	8	72	73	74	62	
8	8	13	14	9	74	75	76	65	
8	10	15	16	11	77	78	79	69	
8	11	16	17	12	79	80	81	71	
8	12	17	18	13	81	82	83	73	
8	13	18	19	14	83	84	85	75	
8	15	20	21	16	86	87	88	78	
8	16	21	22	17	88	89	90	80	
8	17	22	23	18	90	91	92	82	
8	18	23	24	19	92	93	94	84	
8	20	25	26	21	95	96	97	87	
8	21	26	27	22	97	98	99	89	
8	22	27	28	23	99	100	101	91	
8	23	28	29	24	101	102	103	93	
8	25	30	31	26	104	105	106	96	
8	26	31	32	27	106	107	108	98	
8	27	32	33	28	108	109	110	100	
8	28	33	34	29	110	111	112	102	
8	30	35	36	31	113	114	115	105	
8	31	36	37	32	115	116	117	107	
8	32	37	38	33	117	118	119	109	
8	33	38	39	34	119	120	121	111	
8	35	40	41	36	122	123	124	114	
8	36	41	42	37	124	125	126	116	
8	37	42	43	38	126	127	128	118	
8	38	43	44	39	128	129	130	120	
8	40	45	46	41	131	132	133	123	
8	41	46	47	42	133	134	135	125	
8	42	47	48	43	135	136	137	127	
8	43	48	49	44	137	138	139	129	
8	45	50	51	46	140	141	142	132	
8	46	51	52	47	142	143	144	134	
8	47	52	53	48	144	145	146	136	
8	48	53	54	49	146	147	148	138	

CELL_TYPES	40
23
23
23
23
23
23
23
23
23
23
23
23
23
23
23
23
23
23
23
23
23
23
23
23
23
23
23
23
23
23
23
23
23
23
23
23
23
23
23
23

POINT_DATA	149
VECTORS u float
19.1037	-83.2693	0	
8.92451	-83.2162	0	
-1.01063	-83.1998	0	
-10.9427	-83.2254	0	
-21.1134	-83.2877	0	
13.9118	9.40805	0	
6.57732	9.77396	0	
-0.539682	9.88193	0	
-7.66007	9.72388	0	
-15.007	9.30748	0	
0.300892	46.6048	0	
0.184139	46.9967	0	
-0.0702477	47.1213	0	
-0.327389	46.9619	0	
-0.454803	46.535	0	
-8.21878	22.3407	0	
-3.84491	22.4627	0	
0.264562	22.4974	0	
4.37122	22.4397	0	
8.73409	22.2947	0	
-7.17851	-22.0614	0	
-3.26231	-22.2214	0	
0.46527	-22.2805	0	
4.19002	-22.2328	0	
8.09513	-22.0843	0	
0.506516	-42.8726	0	
0.521403	-43.1437	0	
0.532148	-43.2374	0	
0.540073	-43.1437	0	
0.543857	-42.8726	0	
8.05782	-22.271	0	
4.17137	-22.4195	0	
0.465271	-22.4672	0	
-3.24365	-22.408	0	
-7.1412	-22.248	0	
8.69682	21.9216	0	
4.35258	22.0666	0	
0.264564	22.1242	0	
-3.82627	22.0895	0	
-8.18151	21.9676	0	
-0.492064	45.9756	0	
-0.346018	46.4025	0	
-0.0702457	46.5618	0	
0.202773	46.4373	0	
0.338157	46.0453	0	
-15.0443	8.56171	0	
-7.67869	8.97811	0	
-0.539678	9.13616	0	
6.59595	9.02819	0	
13.949	8.66228	0	
-21.1507	-84.2198	0	
-10.9613	-84.1575	0	
-1.01063	-84.1319	0	
8.94315	-84.1483	0	
19.1409	-84.2014	0	
17.5995	-33.6993	0	
10.2172	9.62295	0	
8.32523	-33.5481	0	
13.9868	-83.2447	0	
3.0103	9.85898	0	
-0.852955	-33.5133	0	
3.94747	-83.2085	0	
-4.09055	9.83395	0	
-10.0297	-33.5914	0	
-5.96797	-83.2132	0	
-11.3056	9.54761	0	
-19.3022	-33.785	0	
-16.0019	-83.2587	0	
7.12251	36.8229	0	
0.26109	46.8362	0	
3.40905	37.2583	0	
0.0630543	47.094	0	
-0.311211	37.3829	0	
-0.204456	47.0765	0	
-4.03106	37.2186	0	
-0.408899	46.7839	0	
-7.7497	36.7434	0	
-4.73573	39.8136	0	
-6.00755	22.4098	0	
-2.29947	40.0845	0	
-1.78201	22.4889	0	
0.0900284	40.1615	0	
2.31028	22.4774	0	
2.48009	40.0558	0	
6.52908	22.3754	0	
4.91167	39.7562	0	
-8.49182	-0.730295	0	
-5.20309	-22.1587	0	
-4.04478	-0.767161	0	
-1.39267	-22.2669	0	
0.357603	-0.784951	0	
2.32232	-22.2726	0	
4.76057	-0.784367	0	
6.126	-22.1759	0	
9.20302	-0.764697	0	
-3.65793	-37.6536	0	
0.514327	-43.0359	0	
-1.57364	-37.9034	0	
0.527043	-43.2168	0	
0.491369	-37.9861	0	
0.536377	-43.2168	0	
2.55696	-37.9092	0	
0.542332	-43.0359	0	
4.63667	-37.6651	0	
4.59934	-37.7584	0	
6.09801	-22.3625	0	
2.53829	-38.0025	0	
2.313	-22.4593	0	
0.491369	-38.0794	0	
-1.38334	-22.4536	0	
-1.55498	-37.9968	0	
-5.1751	-22.3453	0	
-3.6206	-37.747	0	
9.16573	-1.04462	0	
6.50113	22.0022	0	
4.74192	-1.06429	0	
2.30096	22.1043	0	
0.357604	-1.06487	0	
-1.77269	22.1157	0	
-4.02613	-1.04708	0	
-5.97959	22.0367	0	
-8.45453	-1.01022	0	
4.87441	39.29	0	
-0.436845	46.2245	0	
2.46146	39.5896	0	
-0.21377	46.5171	0	
0.0900294	39.6952	0	
0.0723728	46.5345	0	
-2.28083	39.6182	0	
0.28904	46.2767	0	
-4.69847	39.3473	0	
-7.78696	36.0908	0	
-11.3335	8.80184	0	
-4.04969	36.566	0	
-4.09986	9.08817	0	
-0.311209	36.7302	0	
3.01962	9.11321	0	
3.42769	36.6057	0	
10.2452	8.87717	0	
7.15978	36.1703	0	
-19.3395	-34.6239	0	
-16.0299	-84.1908	0	
-10.0483	-34.4303	0	
-5.97728	-84.1453	0	
-0.852952	-34.3523	0	
3.95679	-84.1406	0	
8.34386	-34.3871	0	
14.0147	-84.1768	0	
17.6368	-34.5382	0	
