# vtk DataFile Version 4.1
vtk output
ASCII
DATASET UNSTRUCTURED_GRID

POINTS	149	float
0	0	0	
0	0.5	0	
0	1	0	
0	1.5	0	
0	2	0	
5	0	0	
5	0.5	0	
5	1	0	
5	1.5	0	
5	2	0	
10	0	0	
10	0.5	0	
10	1	0	
10	1.5	0	
10	2	0	
15	0	0	
15	0.5	0	
15	1	0	
15	1.5	0	
15	2	0	
20	0	0	
20	0.5	0	
20	1	0	
20	1.5	0	
20	2	0	
25	0	0	
25	0.5	0	
25	1	0	
25	1.5	0	
25	2	0	
30	0	0	
30	0.5	0	
30	1	0	
30	1.5	0	
30	2	0	
35	0	0	
35	0.5	0	
35	1	0	
35	1.5	0	
35	2	0	
40	0	0	
40	0.5	0	
40	1	0	
40	1.5	0	
40	2	0	
45	0	0	
45	0.5	0	
45	1	0	
45	1.5	0	
45	2	0	
50	0	0	
50	0.5	0	
50	1	0	
50	1.5	0	
50	2	0	
2.5	0	0	
5	0.25	0	
2.5	0.5	0	
0	0.25	0	
5	0.75	0	
2.5	1	0	
0	0.75	0	
5	1.25	0	
2.5	1.5	0	
0	1.25	0	
5	1.75	0	
2.5	2	0	
0	1.75	0	
7.5	0	0	
10	0.25	0	
7.5	0.5	0	
10	0.75	0	
7.5	1	0	
10	1.25	0	
7.5	1.5	0	
10	1.75	0	
7.5	2	0	
12.5	0	0	
15	0.25	0	
12.5	0.5	0	
15	0.75	0	
12.5	1	0	
15	1.25	0	
12.5	1.5	0	
15	1.75	0	
12.5	2	0	
17.5	0	0	
20	0.25	0	
17.5	0.5	0	
20	0.75	0	
17.5	1	0	
20	1.25	0	
17.5	1.5	0	
20	1.75	0	
17.5	2	0	
22.5	0	0	
25	0.25	0	
22.5	0.5	0	
25	0.75	0	
22.5	1	0	
25	1.25	0	
22.5	1.5	0	
25	1.75	0	
22.5	2	0	
27.5	0	0	
30	0.25	0	
27.5	0.5	0	
30	0.75	0	
27.5	1	0	
30	1.25	0	
27.5	1.5	0	
30	1.75	0	
27.5	2	0	
32.5	0	0	
35	0.25	0	
32.5	0.5	0	
35	0.75	0	
32.5	1	0	
35	1.25	0	
32.5	1.5	0	
35	1.75	0	
32.5	2	0	
37.5	0	0	
40	0.25	0	
37.5	0.5	0	
40	0.75	0	
37.5	1	0	
40	1.25	0	
37.5	1.5	0	
40	1.75	0	
37.5	2	0	
42.5	0	0	
45	0.25	0	
42.5	0.5	0	
45	0.75	0	
42.5	1	0	
45	1.25	0	
42.5	1.5	0	
45	1.75	0	
42.5	2	0	
47.5	0	0	
50	0.25	0	
47.5	0.5	0	
50	0.75	0	
47.5	1	0	
50	1.25	0	
47.5	1.5	0	
50	1.75	0	
47.5	2	0	

CELLS 40	360
8	0	5	6	1	55	56	57	58	
8	1	6	7	2	57	59	60	61	
8	2	7	8	3	60	62	63	64	
8	3	8	9	4	63	65	66	67	
8	5	10	11	6	68	69	70	56	
8	6	11	12	7	70	71	72	59	
8	7	12	13	8	72	73	74	62	
8	8	13	14	9	74	75	76	65	
8	10	15	16	11	77	78	79	69	
8	11	16	17	12	79	80	81	71	
8	12	17	18	13	81	82	83	73	
8	13	18	19	14	83	84	85	75	
8	15	20	21	16	86	87	88	78	
8	16	21	22	17	88	89	90	80	
8	17	22	23	18	90	91	92	82	
8	18	23	24	19	92	93	94	84	
8	20	25	26	21	95	96	97	87	
8	21	26	27	22	97	98	99	89	
8	22	27	28	23	99	100	101	91	
8	23	28	29	24	101	102	103	93	
8	25	30	31	26	104	105	106	96	
8	26	31	32	27	106	107	108	98	
8	27	32	33	28	108	109	110	100	
8	28	33	34	29	110	111	112	102	
8	30	35	36	31	113	114	115	105	
8	31	36	37	32	115	116	117	107	
8	32	37	38	33	117	118	119	109	
8	33	38	39	34	119	120	121	111	
8	35	40	41	36	122	123	124	114	
8	36	41	42	37	124	125	126	116	
8	37	42	43	38	126	127	128	118	
8	38	43	44	39	128	129	130	120	
8	40	45	46	41	131	132	133	123	
8	41	46	47	42	133	134	135	125	
8	42	47	48	43	135	136	137	127	
8	43	48	49	44	137	138	139	129	
8	45	50	51	46	140	141	142	132	
8	46	51	52	47	142	143	144	134	
8	47	52	53	48	144	145	146	136	
8	48	53	54	49	146	147	148	138	

CELL_TYPES	40
23
23
23
23
23
23
23
23
23
23
23
23
23
23
23
23
23
23
23
23
23
23
23
23
23
23
23
23
23
23
23
23
23
23
23
23
23
23
23
23

POINT_DATA	149
VECTORS u float
0	0	0	
0.0169697	0.0385551	0	
0.0169806	0.0385332	0	
0.0183042	0.0386234	0	
0.0100289	0.0190919	0	
-0.00256288	-0.0037382	0	
0.0227935	0.0353841	0	
0.0284175	0.0355411	0	
0.0341199	0.0356624	0	
0.020331	-0.00343094	0	
-0.00366981	-0.0453223	0	
0.0183667	-0.00618773	0	
0.0206159	-0.00615518	0	
0.0228521	-0.00612609	0	
0.00521466	-0.0452467	0	
-0.00460004	-0.0514601	0	
0.0145659	-0.0123286	0	
0.013985	-0.012325	0	
0.0133993	-0.0123205	0	
-0.00715129	-0.0514501	0	
-0.00905738	-0.0411371	0	
0.00963197	-0.00200456	0	
0.00852577	-0.00200376	0	
0.00741933	-0.00200389	0	
-0.0136067	-0.0411364	0	
-0.0149711	-0.0330747	0	
0.00450056	0.00605821	0	
0.0041273	0.00605896	0	
0.00375475	0.00605823	0	
-0.0164881	-0.0330747	0	
-0.0203987	-0.0343527	0	
9.33072e-005	0.00478015	0	
0.000700541	0.00478102	0	
0.00130867	0.00478038	0	
-0.0179139	-0.0343525	0	
-0.0239261	-0.0438347	0	
-0.00290276	-0.00470364	0	
-0.00182848	-0.00470335	0	
-0.000753539	-0.00470282	0	
-0.0194472	-0.0438348	0	
-0.0229259	-0.0502751	0	
-0.0032211	-0.0111552	0	
-0.00351298	-0.0111608	0	
-0.00380714	-0.0111575	0	
-0.0238324	-0.0502863	0	
-0.015287	-0.0283658	0	
8.62628e-005	0.0106914	0	
-0.0043924	0.0106449	0	
-0.00888397	0.0106336	0	
-0.033271	-0.0284958	0	
-0.0180782	0	0	
-0.0165614	0.0386695	0	
-0.0244803	0.038343	0	
-0.0323172	0.0381939	0	
-0.050384	0.0186035	0	
-0.00577199	0.00347099	0	
0.0406966	0.0771216	0	
0.00851896	0.0217225	0	
0.0285144	0.0596859	0	
0.0462001	0.0771921	0	
0.0126091	0.0215468	0	
0.0271354	0.0593896	0	
0.0518128	0.0773281	0	
0.0166227	0.0214121	0	
0.0278617	0.0594289	0	
0.0576493	0.077406	0	
0.0111946	0.00310098	0	
0.0294109	0.059497	0	
-0.0140603	-0.0499131	0	
0.0377979	0.0355337	0	
-0.00027947	-0.0316384	0	
0.0400259	0.0355518	0	
0.00386014	-0.0316668	0	
0.0422819	0.0355833	0	
0.00801371	-0.0316983	0	
0.0445243	0.035604	0	
0.00259105	-0.0499858	0	
-0.0142117	-0.0727989	0	
0.035455	0.0293971	0	
-0.00401786	-0.0545281	0	
0.0348223	0.0293977	0	
-0.00339201	-0.0545315	0	
0.0342434	0.0294016	0	
-0.00276106	-0.0545367	0	
0.033609	0.0294057	0	
-0.0117332	-0.0728102	0	
-0.0169496	-0.0676902	0	
0.0307582	0.03972	0	
-0.00839863	-0.0494198	0	
0.0296241	0.0397199	0	
-0.00942074	-0.0494205	0	
0.0285214	0.0397203	0	
-0.0104423	-0.0494202	0	
0.027388	0.0397208	0	
-0.0210592	-0.0676904	0	
-0.0223122	-0.0569385	0	
0.0252412	0.0477827	0	
-0.0135329	-0.0386686	0	
0.0248614	0.0477828	0	
-0.0143356	-0.0386694	0	
0.0244888	0.0477828	0	
-0.0151386	-0.0386686	0	
0.0241106	0.0477827	0	
-0.0255282	-0.0569385	0	
-0.0280771	-0.0532554	0	
0.0203253	0.0465047	0	
-0.0183652	-0.0349853	0	
0.0209448	0.0465047	0	
-0.0182376	-0.0349859	0	
0.0215516	0.0465049	0	
-0.0181106	-0.0349853	0	
0.0221727	0.0465048	0	
-0.0275677	-0.0532554	0	
-0.032682	-0.0592384	0	
0.0170692	0.0370219	0	
-0.0221508	-0.0409686	0	
0.0181842	0.0370208	0	
-0.0212076	-0.0409696	0	
0.0192544	0.0370212	0	
-0.020265	-0.0409689	0	
0.0203699	0.0370223	0	
-0.0289026	-0.0592386	0	
-0.0341727	-0.0695118	0	
0.0174157	0.0305755	0	
-0.0239421	-0.0512403	0	
0.0171843	0.0305657	0	
-0.0233104	-0.0512408	0	
0.0168826	0.0305645	0	
-0.022679	-0.0512411	0	
0.016643	0.0305686	0	
-0.0316148	-0.0695118	0	
-0.0298047	-0.0656413	0	
0.0228827	0.0524542	0	
-0.0224023	-0.0473585	0	
0.0183972	0.052395	0	
-0.0245969	-0.0473524	0	
0.0139098	0.0523662	0	
-0.026788	-0.0473567	0	
0.00939802	0.0523607	0	
-0.0385384	-0.0656322	0	
-0.0212932	-0.0207735	0	
-0.00214114	0.0597587	0	
-0.0184396	-0.0024308	0	
-0.0102723	0.0593607	0	
-0.0250969	-0.00238215	0	
-0.0181167	0.0591228	0	
-0.0317344	-0.00236987	0	
-0.0260721	0.059039	0	
-0.0479966	-0.0206451	0	
