# vtk DataFile Version 4.1
vtk output
ASCII
DATASET UNSTRUCTURED_GRID

POINTS	149	float
0	0	0	
0	0.5	0	
0	1	0	
0	1.5	0	
0	2	0	
5	0	0	
5	0.5	0	
5	1	0	
5	1.5	0	
5	2	0	
10	0	0	
10	0.5	0	
10	1	0	
10	1.5	0	
10	2	0	
15	0	0	
15	0.5	0	
15	1	0	
15	1.5	0	
15	2	0	
20	0	0	
20	0.5	0	
20	1	0	
20	1.5	0	
20	2	0	
25	0	0	
25	0.5	0	
25	1	0	
25	1.5	0	
25	2	0	
30	0	0	
30	0.5	0	
30	1	0	
30	1.5	0	
30	2	0	
35	0	0	
35	0.5	0	
35	1	0	
35	1.5	0	
35	2	0	
40	0	0	
40	0.5	0	
40	1	0	
40	1.5	0	
40	2	0	
45	0	0	
45	0.5	0	
45	1	0	
45	1.5	0	
45	2	0	
50	0	0	
50	0.5	0	
50	1	0	
50	1.5	0	
50	2	0	
2.5	0	0	
5	0.25	0	
2.5	0.5	0	
0	0.25	0	
5	0.75	0	
2.5	1	0	
0	0.75	0	
5	1.25	0	
2.5	1.5	0	
0	1.25	0	
5	1.75	0	
2.5	2	0	
0	1.75	0	
7.5	0	0	
10	0.25	0	
7.5	0.5	0	
10	0.75	0	
7.5	1	0	
10	1.25	0	
7.5	1.5	0	
10	1.75	0	
7.5	2	0	
12.5	0	0	
15	0.25	0	
12.5	0.5	0	
15	0.75	0	
12.5	1	0	
15	1.25	0	
12.5	1.5	0	
15	1.75	0	
12.5	2	0	
17.5	0	0	
20	0.25	0	
17.5	0.5	0	
20	0.75	0	
17.5	1	0	
20	1.25	0	
17.5	1.5	0	
20	1.75	0	
17.5	2	0	
22.5	0	0	
25	0.25	0	
22.5	0.5	0	
25	0.75	0	
22.5	1	0	
25	1.25	0	
22.5	1.5	0	
25	1.75	0	
22.5	2	0	
27.5	0	0	
30	0.25	0	
27.5	0.5	0	
30	0.75	0	
27.5	1	0	
30	1.25	0	
27.5	1.5	0	
30	1.75	0	
27.5	2	0	
32.5	0	0	
35	0.25	0	
32.5	0.5	0	
35	0.75	0	
32.5	1	0	
35	1.25	0	
32.5	1.5	0	
35	1.75	0	
32.5	2	0	
37.5	0	0	
40	0.25	0	
37.5	0.5	0	
40	0.75	0	
37.5	1	0	
40	1.25	0	
37.5	1.5	0	
40	1.75	0	
37.5	2	0	
42.5	0	0	
45	0.25	0	
42.5	0.5	0	
45	0.75	0	
42.5	1	0	
45	1.25	0	
42.5	1.5	0	
45	1.75	0	
42.5	2	0	
47.5	0	0	
50	0.25	0	
47.5	0.5	0	
50	0.75	0	
47.5	1	0	
50	1.25	0	
47.5	1.5	0	
50	1.75	0	
47.5	2	0	

CELLS 40	360
8	0	5	6	1	55	56	57	58	
8	1	6	7	2	57	59	60	61	
8	2	7	8	3	60	62	63	64	
8	3	8	9	4	63	65	66	67	
8	5	10	11	6	68	69	70	56	
8	6	11	12	7	70	71	72	59	
8	7	12	13	8	72	73	74	62	
8	8	13	14	9	74	75	76	65	
8	10	15	16	11	77	78	79	69	
8	11	16	17	12	79	80	81	71	
8	12	17	18	13	81	82	83	73	
8	13	18	19	14	83	84	85	75	
8	15	20	21	16	86	87	88	78	
8	16	21	22	17	88	89	90	80	
8	17	22	23	18	90	91	92	82	
8	18	23	24	19	92	93	94	84	
8	20	25	26	21	95	96	97	87	
8	21	26	27	22	97	98	99	89	
8	22	27	28	23	99	100	101	91	
8	23	28	29	24	101	102	103	93	
8	25	30	31	26	104	105	106	96	
8	26	31	32	27	106	107	108	98	
8	27	32	33	28	108	109	110	100	
8	28	33	34	29	110	111	112	102	
8	30	35	36	31	113	114	115	105	
8	31	36	37	32	115	116	117	107	
8	32	37	38	33	117	118	119	109	
8	33	38	39	34	119	120	121	111	
8	35	40	41	36	122	123	124	114	
8	36	41	42	37	124	125	126	116	
8	37	42	43	38	126	127	128	118	
8	38	43	44	39	128	129	130	120	
8	40	45	46	41	131	132	133	123	
8	41	46	47	42	133	134	135	125	
8	42	47	48	43	135	136	137	127	
8	43	48	49	44	137	138	139	129	
8	45	50	51	46	140	141	142	132	
8	46	51	52	47	142	143	144	134	
8	47	52	53	48	144	145	146	136	
8	48	53	54	49	146	147	148	138	

CELL_TYPES	40
23
23
23
23
23
23
23
23
23
23
23
23
23
23
23
23
23
23
23
23
23
23
23
23
23
23
23
23
23
23
23
23
23
23
23
23
23
23
23
23

POINT_DATA	149
VECTORS u float
6.13041	-69.2207	0	
3.0795	-69.2211	0	
0.0283916	-69.2216	0	
-3.0228	-69.2209	0	
-6.07394	-69.2202	0	
6.16253	-38.6323	0	
3.08441	-38.6316	0	
0.0156643	-38.6312	0	
-3.05299	-38.6303	0	
-6.13077	-38.6296	0	
5.89239	-8.23607	0	
2.93546	-8.21436	0	
0.00298776	-8.207	0	
-2.92941	-8.21342	0	
-5.88605	-8.23419	0	
4.73691	18.7891	0	
2.35248	18.842	0	
-0.00604704	18.8599	0	
-2.3645	18.8426	0	
-4.74863	18.7904	0	
2.64833	37.6567	0	
1.31042	37.735	0	
-0.0114606	37.7615	0	
-1.33327	37.7353	0	
-2.67087	37.6573	0	
-0.0120415	44.4453	0	
-0.0127088	44.5331	0	
-0.013264	44.5627	0	
-0.0137431	44.5331	0	
-0.0141102	44.4453	0	
-2.66881	37.6677	0	
-1.33223	37.7457	0	
-0.0114606	37.7719	0	
1.30939	37.7454	0	
2.64626	37.6671	0	
-4.74656	18.811	0	
-2.36347	18.8633	0	
-0.00604708	18.8806	0	
2.35145	18.8627	0	
4.73484	18.8098	0	
-5.88398	-8.20318	0	
-2.92838	-8.18241	0	
0.00298771	-8.17599	0	
2.93443	-8.18335	0	
5.89032	-8.20506	0	
-6.12871	-38.5882	0	
-3.05196	-38.5889	0	
0.0156641	-38.5898	0	
3.08338	-38.5903	0	
6.16046	-38.5909	0	
-6.07187	-69.1685	0	
-3.02177	-69.1692	0	
0.0283915	-69.1699	0	
3.07847	-69.1694	0	
6.12835	-69.169	0	
6.14266	-53.9573	0	
4.62288	-38.6321	0	
3.08427	-53.9582	0	
4.60561	-69.2209	0	
1.54983	-38.6315	0	
0.0241299	-53.9579	0	
1.55417	-69.2214	0	
-1.51848	-38.6308	0	
-3.03605	-53.9571	0	
-1.49741	-69.2213	0	
-4.59131	-38.63	0	
-6.09449	-53.955	0	
-4.54899	-69.2205	0	
6.08639	-23.278	0	
4.41162	-8.2235	0	
3.04634	-23.2693	0	
1.46846	-8.20895	0	
0.00949429	-23.2657	0	
-1.46246	-8.20848	0	
-3.02736	-23.2682	0	
-4.40544	-8.22209	0	
-6.06727	-23.2758	0	
5.40024	5.99992	0	
3.54243	18.8201	0	
2.6972	6.03716	0	
1.17246	18.8554	0	
-0.00133655	6.04989	0	
-1.18453	18.8557	0	
-2.69989	6.03793	0	
-3.55432	18.821	0	
-5.4028	6.00147	0	
3.76208	29.5402	0	
1.97798	37.7026	0	
1.87497	29.6075	0	
0.649014	37.7549	0	
-0.00855511	29.6299	0	
-0.671911	37.7551	0	
-1.89209	29.608	0	
-2.00069	37.7031	0	
-3.77909	29.5411	0	
1.34444	42.7324	0	
-0.0123851	44.4968	0	
0.665443	42.818	0	
-0.0129936	44.5554	0	
-0.0121626	42.8463	0	
-0.0135107	44.5554	0	
-0.689783	42.8182	0	
-0.0139365	44.4968	0	
-1.36866	42.7327	0	
-1.36659	42.7378	0	
-1.99914	37.7134	0	
-0.688749	42.8234	0	
-0.671394	37.7654	0	
-0.0121626	42.8515	0	
0.648497	37.7653	0	
0.664408	42.8232	0	
1.97643	37.713	0	
1.34237	42.7375	0	
-3.77702	29.5567	0	
-3.55277	18.8417	0	
-1.89106	29.6235	0	
-1.18402	18.8764	0	
-0.00855514	29.6454	0	
1.17195	18.8761	0	
1.87393	29.623	0	
3.54088	18.8408	0	
3.76002	29.5557	0	
-5.40074	6.02732	0	
-4.40389	-8.19107	0	
-2.69885	6.06378	0	
-1.46194	-8.17746	0	
-0.00133658	6.07574	0	
1.46794	-8.17793	0	
2.69617	6.063	0	
4.41007	-8.19248	0	
5.39817	6.02577	0	
-6.0652	-23.2396	0	
-4.58976	-38.5887	0	
-3.02633	-23.232	0	
-1.51796	-38.5894	0	
0.00949422	-23.2296	0	
1.54931	-38.5901	0	
3.04531	-23.2331	0	
4.62133	-38.5907	0	
6.08432	-23.2418	0	
-6.09242	-53.9085	0	
-4.54744	-69.1689	0	
-3.03502	-53.9105	0	
-1.49689	-69.1696	0	
0.0241298	-53.9114	0	
1.55366	-69.1697	0	
3.08324	-53.9117	0	
4.60406	-69.1692	0	
6.14059	-53.9108	0	
