# vtk DataFile Version 4.1
vtk output
ASCII
DATASET UNSTRUCTURED_GRID

POINTS	149	float
0	0	0	
0	0.5	0	
0	1	0	
0	1.5	0	
0	2	0	
5	0	0	
5	0.5	0	
5	1	0	
5	1.5	0	
5	2	0	
10	0	0	
10	0.5	0	
10	1	0	
10	1.5	0	
10	2	0	
15	0	0	
15	0.5	0	
15	1	0	
15	1.5	0	
15	2	0	
20	0	0	
20	0.5	0	
20	1	0	
20	1.5	0	
20	2	0	
25	0	0	
25	0.5	0	
25	1	0	
25	1.5	0	
25	2	0	
30	0	0	
30	0.5	0	
30	1	0	
30	1.5	0	
30	2	0	
35	0	0	
35	0.5	0	
35	1	0	
35	1.5	0	
35	2	0	
40	0	0	
40	0.5	0	
40	1	0	
40	1.5	0	
40	2	0	
45	0	0	
45	0.5	0	
45	1	0	
45	1.5	0	
45	2	0	
50	0	0	
50	0.5	0	
50	1	0	
50	1.5	0	
50	2	0	
2.5	0	0	
5	0.25	0	
2.5	0.5	0	
0	0.25	0	
5	0.75	0	
2.5	1	0	
0	0.75	0	
5	1.25	0	
2.5	1.5	0	
0	1.25	0	
5	1.75	0	
2.5	2	0	
0	1.75	0	
7.5	0	0	
10	0.25	0	
7.5	0.5	0	
10	0.75	0	
7.5	1	0	
10	1.25	0	
7.5	1.5	0	
10	1.75	0	
7.5	2	0	
12.5	0	0	
15	0.25	0	
12.5	0.5	0	
15	0.75	0	
12.5	1	0	
15	1.25	0	
12.5	1.5	0	
15	1.75	0	
12.5	2	0	
17.5	0	0	
20	0.25	0	
17.5	0.5	0	
20	0.75	0	
17.5	1	0	
20	1.25	0	
17.5	1.5	0	
20	1.75	0	
17.5	2	0	
22.5	0	0	
25	0.25	0	
22.5	0.5	0	
25	0.75	0	
22.5	1	0	
25	1.25	0	
22.5	1.5	0	
25	1.75	0	
22.5	2	0	
27.5	0	0	
30	0.25	0	
27.5	0.5	0	
30	0.75	0	
27.5	1	0	
30	1.25	0	
27.5	1.5	0	
30	1.75	0	
27.5	2	0	
32.5	0	0	
35	0.25	0	
32.5	0.5	0	
35	0.75	0	
32.5	1	0	
35	1.25	0	
32.5	1.5	0	
35	1.75	0	
32.5	2	0	
37.5	0	0	
40	0.25	0	
37.5	0.5	0	
40	0.75	0	
37.5	1	0	
40	1.25	0	
37.5	1.5	0	
40	1.75	0	
37.5	2	0	
42.5	0	0	
45	0.25	0	
42.5	0.5	0	
45	0.75	0	
42.5	1	0	
45	1.25	0	
42.5	1.5	0	
45	1.75	0	
42.5	2	0	
47.5	0	0	
50	0.25	0	
47.5	0.5	0	
50	0.75	0	
47.5	1	0	
50	1.25	0	
47.5	1.5	0	
50	1.75	0	
47.5	2	0	

CELLS 40	360
8	0	5	6	1	55	56	57	58	
8	1	6	7	2	57	59	60	61	
8	2	7	8	3	60	62	63	64	
8	3	8	9	4	63	65	66	67	
8	5	10	11	6	68	69	70	56	
8	6	11	12	7	70	71	72	59	
8	7	12	13	8	72	73	74	62	
8	8	13	14	9	74	75	76	65	
8	10	15	16	11	77	78	79	69	
8	11	16	17	12	79	80	81	71	
8	12	17	18	13	81	82	83	73	
8	13	18	19	14	83	84	85	75	
8	15	20	21	16	86	87	88	78	
8	16	21	22	17	88	89	90	80	
8	17	22	23	18	90	91	92	82	
8	18	23	24	19	92	93	94	84	
8	20	25	26	21	95	96	97	87	
8	21	26	27	22	97	98	99	89	
8	22	27	28	23	99	100	101	91	
8	23	28	29	24	101	102	103	93	
8	25	30	31	26	104	105	106	96	
8	26	31	32	27	106	107	108	98	
8	27	32	33	28	108	109	110	100	
8	28	33	34	29	110	111	112	102	
8	30	35	36	31	113	114	115	105	
8	31	36	37	32	115	116	117	107	
8	32	37	38	33	117	118	119	109	
8	33	38	39	34	119	120	121	111	
8	35	40	41	36	122	123	124	114	
8	36	41	42	37	124	125	126	116	
8	37	42	43	38	126	127	128	118	
8	38	43	44	39	128	129	130	120	
8	40	45	46	41	131	132	133	123	
8	41	46	47	42	133	134	135	125	
8	42	47	48	43	135	136	137	127	
8	43	48	49	44	137	138	139	129	
8	45	50	51	46	140	141	142	132	
8	46	51	52	47	142	143	144	134	
8	47	52	53	48	144	145	146	136	
8	48	53	54	49	146	147	148	138	

CELL_TYPES	40
23
23
23
23
23
23
23
23
23
23
23
23
23
23
23
23
23
23
23
23
23
23
23
23
23
23
23
23
23
23
23
23
23
23
23
23
23
23
23
23

POINT_DATA	149
VECTORS u float
-2.08454	70.2582	0	
-1.14916	70.2582	0	
-0.213776	70.2582	0	
0.721606	70.2582	0	
1.65699	70.2582	0	
-2.08454	60.9044	0	
-1.14916	60.9044	0	
-0.213776	60.9044	0	
0.721606	60.9044	0	
1.65699	60.9044	0	
-2.08454	51.5505	0	
-1.14916	51.5505	0	
-0.213776	51.5505	0	
0.721606	51.5505	0	
1.65699	51.5505	0	
-2.08454	42.1967	0	
-1.14916	42.1967	0	
-0.213776	42.1967	0	
0.721606	42.1967	0	
1.65699	42.1967	0	
-2.08454	32.8429	0	
-1.14916	32.8429	0	
-0.213776	32.8429	0	
0.721606	32.8429	0	
1.65699	32.8429	0	
-2.08454	23.4891	0	
-1.14916	23.4891	0	
-0.213776	23.4891	0	
0.721606	23.4891	0	
1.65699	23.4891	0	
-2.08454	14.1353	0	
-1.14916	14.1353	0	
-0.213776	14.1353	0	
0.721606	14.1353	0	
1.65699	14.1353	0	
-2.08454	4.78145	0	
-1.14916	4.78145	0	
-0.213776	4.78145	0	
0.721606	4.78145	0	
1.65699	4.78145	0	
-2.08454	-4.57237	0	
-1.14916	-4.57237	0	
-0.213776	-4.57237	0	
0.721606	-4.57237	0	
1.65699	-4.57237	0	
-2.08454	-13.9262	0	
-1.14916	-13.9262	0	
-0.213776	-13.9262	0	
0.721606	-13.9262	0	
1.65699	-13.9262	0	
-2.08454	-23.28	0	
-1.14916	-23.28	0	
-0.213776	-23.28	0	
0.721606	-23.28	0	
1.65699	-23.28	0	
-2.08454	65.5813	0	
-1.61685	60.9044	0	
-1.14916	65.5813	0	
-1.61685	70.2582	0	
-0.681467	60.9044	0	
-0.213776	65.5813	0	
-0.681467	70.2582	0	
0.253915	60.9044	0	
0.721606	65.5813	0	
0.253915	70.2582	0	
1.1893	60.9044	0	
1.65699	65.5813	0	
1.1893	70.2582	0	
-2.08454	56.2274	0	
-1.61685	51.5505	0	
-1.14916	56.2274	0	
-0.681467	51.5505	0	
-0.213776	56.2274	0	
0.253915	51.5505	0	
0.721606	56.2274	0	
1.1893	51.5505	0	
1.65699	56.2274	0	
-2.08454	46.8736	0	
-1.61685	42.1967	0	
-1.14916	46.8736	0	
-0.681467	42.1967	0	
-0.213776	46.8736	0	
0.253915	42.1967	0	
0.721606	46.8736	0	
1.1893	42.1967	0	
1.65699	46.8736	0	
-2.08454	37.5198	0	
-1.61685	32.8429	0	
-1.14916	37.5198	0	
-0.681467	32.8429	0	
-0.213776	37.5198	0	
0.253915	32.8429	0	
0.721606	37.5198	0	
1.1893	32.8429	0	
1.65699	37.5198	0	
-2.08454	28.166	0	
-1.61685	23.4891	0	
-1.14916	28.166	0	
-0.681467	23.4891	0	
-0.213776	28.166	0	
0.253915	23.4891	0	
0.721606	28.166	0	
1.1893	23.4891	0	
1.65699	28.166	0	
-2.08454	18.8122	0	
-1.61685	14.1353	0	
-1.14916	18.8122	0	
-0.681467	14.1353	0	
-0.213776	18.8122	0	
0.253915	14.1353	0	
0.721606	18.8122	0	
1.1893	14.1353	0	
1.65699	18.8122	0	
-2.08454	9.45835	0	
-1.61685	4.78145	0	
-1.14916	9.45835	0	
-0.681467	4.78145	0	
-0.213776	9.45835	0	
0.253915	4.78145	0	
0.721606	9.45835	0	
1.1893	4.78145	0	
1.65699	9.45835	0	
-2.08454	0.104536	0	
-1.61685	-4.57237	0	
-1.14916	0.104536	0	
-0.681467	-4.57237	0	
-0.213776	0.104536	0	
0.253915	-4.57237	0	
0.721606	0.104536	0	
1.1893	-4.57237	0	
1.65699	0.104536	0	
-2.08454	-9.24928	0	
-1.61685	-13.9262	0	
-1.14916	-9.24928	0	
-0.681467	-13.9262	0	
-0.213776	-9.24928	0	
0.253915	-13.9262	0	
0.721606	-9.24928	0	
1.1893	-13.9262	0	
1.65699	-9.24928	0	
-2.08454	-18.6031	0	
-1.61685	-23.28	0	
-1.14916	-18.6031	0	
-0.681467	-23.28	0	
-0.213776	-18.6031	0	
0.253915	-23.28	0	
0.721606	-18.6031	0	
1.1893	-23.28	0	
1.65699	-18.6031	0	
