# vtk DataFile Version 4.1
vtk output
ASCII
DATASET UNSTRUCTURED_GRID

POINTS	149	float
0	0	0	
0	0.5	0	
0	1	0	
0	1.5	0	
0	2	0	
5	0	0	
5	0.5	0	
5	1	0	
5	1.5	0	
5	2	0	
10	0	0	
10	0.5	0	
10	1	0	
10	1.5	0	
10	2	0	
15	0	0	
15	0.5	0	
15	1	0	
15	1.5	0	
15	2	0	
20	0	0	
20	0.5	0	
20	1	0	
20	1.5	0	
20	2	0	
25	0	0	
25	0.5	0	
25	1	0	
25	1.5	0	
25	2	0	
30	0	0	
30	0.5	0	
30	1	0	
30	1.5	0	
30	2	0	
35	0	0	
35	0.5	0	
35	1	0	
35	1.5	0	
35	2	0	
40	0	0	
40	0.5	0	
40	1	0	
40	1.5	0	
40	2	0	
45	0	0	
45	0.5	0	
45	1	0	
45	1.5	0	
45	2	0	
50	0	0	
50	0.5	0	
50	1	0	
50	1.5	0	
50	2	0	
2.5	0	0	
5	0.25	0	
2.5	0.5	0	
0	0.25	0	
5	0.75	0	
2.5	1	0	
0	0.75	0	
5	1.25	0	
2.5	1.5	0	
0	1.25	0	
5	1.75	0	
2.5	2	0	
0	1.75	0	
7.5	0	0	
10	0.25	0	
7.5	0.5	0	
10	0.75	0	
7.5	1	0	
10	1.25	0	
7.5	1.5	0	
10	1.75	0	
7.5	2	0	
12.5	0	0	
15	0.25	0	
12.5	0.5	0	
15	0.75	0	
12.5	1	0	
15	1.25	0	
12.5	1.5	0	
15	1.75	0	
12.5	2	0	
17.5	0	0	
20	0.25	0	
17.5	0.5	0	
20	0.75	0	
17.5	1	0	
20	1.25	0	
17.5	1.5	0	
20	1.75	0	
17.5	2	0	
22.5	0	0	
25	0.25	0	
22.5	0.5	0	
25	0.75	0	
22.5	1	0	
25	1.25	0	
22.5	1.5	0	
25	1.75	0	
22.5	2	0	
27.5	0	0	
30	0.25	0	
27.5	0.5	0	
30	0.75	0	
27.5	1	0	
30	1.25	0	
27.5	1.5	0	
30	1.75	0	
27.5	2	0	
32.5	0	0	
35	0.25	0	
32.5	0.5	0	
35	0.75	0	
32.5	1	0	
35	1.25	0	
32.5	1.5	0	
35	1.75	0	
32.5	2	0	
37.5	0	0	
40	0.25	0	
37.5	0.5	0	
40	0.75	0	
37.5	1	0	
40	1.25	0	
37.5	1.5	0	
40	1.75	0	
37.5	2	0	
42.5	0	0	
45	0.25	0	
42.5	0.5	0	
45	0.75	0	
42.5	1	0	
45	1.25	0	
42.5	1.5	0	
45	1.75	0	
42.5	2	0	
47.5	0	0	
50	0.25	0	
47.5	0.5	0	
50	0.75	0	
47.5	1	0	
50	1.25	0	
47.5	1.5	0	
50	1.75	0	
47.5	2	0	

CELLS 40	360
8	0	5	6	1	55	56	57	58	
8	1	6	7	2	57	59	60	61	
8	2	7	8	3	60	62	63	64	
8	3	8	9	4	63	65	66	67	
8	5	10	11	6	68	69	70	56	
8	6	11	12	7	70	71	72	59	
8	7	12	13	8	72	73	74	62	
8	8	13	14	9	74	75	76	65	
8	10	15	16	11	77	78	79	69	
8	11	16	17	12	79	80	81	71	
8	12	17	18	13	81	82	83	73	
8	13	18	19	14	83	84	85	75	
8	15	20	21	16	86	87	88	78	
8	16	21	22	17	88	89	90	80	
8	17	22	23	18	90	91	92	82	
8	18	23	24	19	92	93	94	84	
8	20	25	26	21	95	96	97	87	
8	21	26	27	22	97	98	99	89	
8	22	27	28	23	99	100	101	91	
8	23	28	29	24	101	102	103	93	
8	25	30	31	26	104	105	106	96	
8	26	31	32	27	106	107	108	98	
8	27	32	33	28	108	109	110	100	
8	28	33	34	29	110	111	112	102	
8	30	35	36	31	113	114	115	105	
8	31	36	37	32	115	116	117	107	
8	32	37	38	33	117	118	119	109	
8	33	38	39	34	119	120	121	111	
8	35	40	41	36	122	123	124	114	
8	36	41	42	37	124	125	126	116	
8	37	42	43	38	126	127	128	118	
8	38	43	44	39	128	129	130	120	
8	40	45	46	41	131	132	133	123	
8	41	46	47	42	133	134	135	125	
8	42	47	48	43	135	136	137	127	
8	43	48	49	44	137	138	139	129	
8	45	50	51	46	140	141	142	132	
8	46	51	52	47	142	143	144	134	
8	47	52	53	48	144	145	146	136	
8	48	53	54	49	146	147	148	138	

CELL_TYPES	40
23
23
23
23
23
23
23
23
23
23
23
23
23
23
23
23
23
23
23
23
23
23
23
23
23
23
23
23
23
23
23
23
23
23
23
23
23
23
23
23

POINT_DATA	149
VECTORS u float
0	0	0	
-1.60085	0.00670142	0	
-3.19007	0.0115772	0	
-4.77754	0.0138351	0	
-6.3724	0.0141937	0	
-0.173329	15.6354	0	
-1.68653	15.6364	0	
-3.1926	15.6372	0	
-4.69884	15.6374	0	
-6.21249	15.6374	0	
-0.633949	29.6935	0	
-1.91808	29.6937	0	
-3.19614	29.6938	0	
-4.47426	29.6937	0	
-5.75861	29.6937	0	
-1.34202	40.8235	0	
-2.27288	40.8236	0	
-3.19928	40.8237	0	
-4.12569	40.8236	0	
-5.05659	40.8236	0	
-2.22927	47.9502	0	
-2.71679	47.9503	0	
-3.20197	47.9503	0	
-3.68715	47.9503	0	
-4.17467	47.9502	0	
-3.20983	50.3855	0	
-3.20702	50.3855	0	
-3.20424	50.3856	0	
-3.20146	50.3855	0	
-3.19864	50.3855	0	
-4.1886	47.8967	0	
-3.69614	47.8968	0	
-3.2061	47.8968	0	
-2.71605	47.8968	0	
-2.22359	47.8967	0	
-5.0705	40.7303	0	
-4.13676	40.7304	0	
-3.20754	40.7305	0	
-2.27833	40.7304	0	
-1.34455	40.7303	0	
-5.7698	29.5877	0	
-4.48616	29.5879	0	
-3.20862	29.588	0	
-1.93104	29.5879	0	
-0.64718	29.5879	0	
-6.21837	15.5566	0	
-4.71036	15.5576	0	
-3.20933	15.5583	0	
-1.7081	15.5585	0	
-0.199444	15.5585	0	
-6.37546	0	0	
-4.78704	0.00656877	0	
-3.20857	0.01119	0	
-1.63125	0.0132922	0	
-0.0466927	0.0136188	0	
-0.0659903	7.92917	0	
-0.930388	15.6359	0	
-1.62893	7.92817	0	
-0.80139	0.00339921	0	
-2.4397	15.6368	0	
-3.19091	7.92745	0	
-2.39589	0.00926136	0	
-3.94552	15.6373	0	
-4.75264	7.92714	0	
-3.9837	0.0128321	0	
-5.45511	15.6374	0	
-6.31502	7.92711	0	
-5.57437	0.014074	0	
-0.383772	22.952	0	
-1.27651	29.6936	0	
-1.78957	22.9518	0	
-2.55728	29.6937	0	
-3.19456	22.9517	0	
-3.83505	29.6938	0	
-4.59949	22.9518	0	
-5.11596	29.6937	0	
-6.00505	22.9518	0	
-0.972376	35.7005	0	
-1.80779	40.8236	0	
-2.08537	35.7004	0	
-2.73619	40.8236	0	
-3.1978	35.7004	0	
-3.66237	40.8236	0	
-4.31022	35.7005	0	
-4.5908	40.8236	0	
-5.42318	35.7005	0	
-1.77572	44.9413	0	
-2.47321	47.9503	0	
-2.48838	44.9413	0	
-2.95944	47.9503	0	
-3.20068	44.9412	0	
-3.4445	47.9503	0	
-3.91299	44.9413	0	
-3.93073	47.9503	0	
-4.62564	44.9413	0	
-2.71623	49.781	0	
-3.20842	50.3855	0	
-2.95975	49.7809	0	
-3.20563	50.3856	0	
-3.20316	49.7809	0	
-3.20285	50.3856	0	
-3.44656	49.7809	0	
-3.20005	50.3855	0	
-3.69008	49.781	0	
-3.70283	49.7534	0	
-3.94219	47.8968	0	
-3.45396	49.7533	0	
-3.45106	47.8968	0	
-3.20522	49.7533	0	
-2.96113	47.8968	0	
-2.95647	49.7533	0	
-2.47	47.8968	0	
-2.7076	49.7534	0	
-4.63977	44.8654	0	
-4.60329	40.7304	0	
-3.92314	44.8653	0	
-3.67204	40.7304	0	
-3.20687	44.8653	0	
-2.74305	40.7304	0	
-2.4906	44.8653	0	
-1.81179	40.7304	0	
-1.77397	44.8654	0	
-5.43604	35.5968	0	
-5.12748	29.5878	0	
-4.32178	35.5967	0	
-3.84722	29.5879	0	
-3.2081	35.5967	0	
-2.56999	29.5879	0	
-2.09443	35.5967	0	
-1.28958	29.5879	0	
-0.98021	35.5968	0	
-6.01427	22.8539	0	
-5.46386	15.5571	0	
-4.61116	22.8538	0	
-3.95969	15.5579	0	
-3.20888	22.8537	0	
-2.45891	15.5583	0	
-1.80665	22.8537	0	
-0.95434	15.5584	0	
-0.403768	22.8538	0	
-6.31854	7.88209	0	
-5.5804	0.00333782	0	
-4.76329	7.88116	0	
-3.99744	0.00900196	0	
-3.20918	7.88055	0	
-2.42003	0.0123653	0	
-1.65535	7.88031	0	
-0.83954	0.0135138	0	
-0.100848	7.88029	0	
