# vtk DataFile Version 4.1
vtk output
ASCII
DATASET UNSTRUCTURED_GRID

POINTS	5001	float
0	0	0	
0	0.05	0	
0	0.1	0	
0	0.15	0	
0	0.2	0	
0	0.25	0	
0	0.3	0	
0	0.35	0	
0	0.4	0	
0	0.45	0	
0	0.5	0	
0	0.55	0	
0	0.6	0	
0	0.65	0	
0	0.7	0	
0	0.75	0	
0	0.8	0	
0	0.85	0	
0	0.9	0	
0	0.95	0	
0	1	0	
0.05	0	0	
0.05	0.05	0	
0.05	0.1	0	
0.05	0.15	0	
0.05	0.2	0	
0.05	0.25	0	
0.05	0.3	0	
0.05	0.35	0	
0.05	0.4	0	
0.05	0.45	0	
0.05	0.5	0	
0.05	0.55	0	
0.05	0.6	0	
0.05	0.65	0	
0.05	0.7	0	
0.05	0.75	0	
0.05	0.8	0	
0.05	0.85	0	
0.05	0.9	0	
0.05	0.95	0	
0.05	1	0	
0.1	0	0	
0.1	0.05	0	
0.1	0.1	0	
0.1	0.15	0	
0.1	0.2	0	
0.1	0.25	0	
0.1	0.3	0	
0.1	0.35	0	
0.1	0.4	0	
0.1	0.45	0	
0.1	0.5	0	
0.1	0.55	0	
0.1	0.6	0	
0.1	0.65	0	
0.1	0.7	0	
0.1	0.75	0	
0.1	0.8	0	
0.1	0.85	0	
0.1	0.9	0	
0.1	0.95	0	
0.1	1	0	
0.15	0	0	
0.15	0.05	0	
0.15	0.1	0	
0.15	0.15	0	
0.15	0.2	0	
0.15	0.25	0	
0.15	0.3	0	
0.15	0.35	0	
0.15	0.4	0	
0.15	0.45	0	
0.15	0.5	0	
0.15	0.55	0	
0.15	0.6	0	
0.15	0.65	0	
0.15	0.7	0	
0.15	0.75	0	
0.15	0.8	0	
0.15	0.85	0	
0.15	0.9	0	
0.15	0.95	0	
0.15	1	0	
0.2	0	0	
0.2	0.05	0	
0.2	0.1	0	
0.2	0.15	0	
0.2	0.2	0	
0.2	0.25	0	
0.2	0.3	0	
0.2	0.35	0	
0.2	0.4	0	
0.2	0.45	0	
0.2	0.5	0	
0.2	0.55	0	
0.2	0.6	0	
0.2	0.65	0	
0.2	0.7	0	
0.2	0.75	0	
0.2	0.8	0	
0.2	0.85	0	
0.2	0.9	0	
0.2	0.95	0	
0.2	1	0	
0.25	0	0	
0.25	0.05	0	
0.25	0.1	0	
0.25	0.15	0	
0.25	0.2	0	
0.25	0.25	0	
0.25	0.3	0	
0.25	0.35	0	
0.25	0.4	0	
0.25	0.45	0	
0.25	0.5	0	
0.25	0.55	0	
0.25	0.6	0	
0.25	0.65	0	
0.25	0.7	0	
0.25	0.75	0	
0.25	0.8	0	
0.25	0.85	0	
0.25	0.9	0	
0.25	0.95	0	
0.25	1	0	
0.3	0	0	
0.3	0.05	0	
0.3	0.1	0	
0.3	0.15	0	
0.3	0.2	0	
0.3	0.25	0	
0.3	0.3	0	
0.3	0.35	0	
0.3	0.4	0	
0.3	0.45	0	
0.3	0.5	0	
0.3	0.55	0	
0.3	0.6	0	
0.3	0.65	0	
0.3	0.7	0	
0.3	0.75	0	
0.3	0.8	0	
0.3	0.85	0	
0.3	0.9	0	
0.3	0.95	0	
0.3	1	0	
0.35	0	0	
0.35	0.05	0	
0.35	0.1	0	
0.35	0.15	0	
0.35	0.2	0	
0.35	0.25	0	
0.35	0.3	0	
0.35	0.35	0	
0.35	0.4	0	
0.35	0.45	0	
0.35	0.5	0	
0.35	0.55	0	
0.35	0.6	0	
0.35	0.65	0	
0.35	0.7	0	
0.35	0.75	0	
0.35	0.8	0	
0.35	0.85	0	
0.35	0.9	0	
0.35	0.95	0	
0.35	1	0	
0.4	0	0	
0.4	0.05	0	
0.4	0.1	0	
0.4	0.15	0	
0.4	0.2	0	
0.4	0.25	0	
0.4	0.3	0	
0.4	0.35	0	
0.4	0.4	0	
0.4	0.45	0	
0.4	0.5	0	
0.4	0.55	0	
0.4	0.6	0	
0.4	0.65	0	
0.4	0.7	0	
0.4	0.75	0	
0.4	0.8	0	
0.4	0.85	0	
0.4	0.9	0	
0.4	0.95	0	
0.4	1	0	
0.45	0	0	
0.45	0.05	0	
0.45	0.1	0	
0.45	0.15	0	
0.45	0.2	0	
0.45	0.25	0	
0.45	0.3	0	
0.45	0.35	0	
0.45	0.4	0	
0.45	0.45	0	
0.45	0.5	0	
0.45	0.55	0	
0.45	0.6	0	
0.45	0.65	0	
0.45	0.7	0	
0.45	0.75	0	
0.45	0.8	0	
0.45	0.85	0	
0.45	0.9	0	
0.45	0.95	0	
0.45	1	0	
0.5	0	0	
0.5	0.05	0	
0.5	0.1	0	
0.5	0.15	0	
0.5	0.2	0	
0.5	0.25	0	
0.5	0.3	0	
0.5	0.35	0	
0.5	0.4	0	
0.5	0.45	0	
0.5	0.5	0	
0.5	0.55	0	
0.5	0.6	0	
0.5	0.65	0	
0.5	0.7	0	
0.5	0.75	0	
0.5	0.8	0	
0.5	0.85	0	
0.5	0.9	0	
0.5	0.95	0	
0.5	1	0	
0.55	0	0	
0.55	0.05	0	
0.55	0.1	0	
0.55	0.15	0	
0.55	0.2	0	
0.55	0.25	0	
0.55	0.3	0	
0.55	0.35	0	
0.55	0.4	0	
0.55	0.45	0	
0.55	0.5	0	
0.55	0.55	0	
0.55	0.6	0	
0.55	0.65	0	
0.55	0.7	0	
0.55	0.75	0	
0.55	0.8	0	
0.55	0.85	0	
0.55	0.9	0	
0.55	0.95	0	
0.55	1	0	
0.6	0	0	
0.6	0.05	0	
0.6	0.1	0	
0.6	0.15	0	
0.6	0.2	0	
0.6	0.25	0	
0.6	0.3	0	
0.6	0.35	0	
0.6	0.4	0	
0.6	0.45	0	
0.6	0.5	0	
0.6	0.55	0	
0.6	0.6	0	
0.6	0.65	0	
0.6	0.7	0	
0.6	0.75	0	
0.6	0.8	0	
0.6	0.85	0	
0.6	0.9	0	
0.6	0.95	0	
0.6	1	0	
0.65	0	0	
0.65	0.05	0	
0.65	0.1	0	
0.65	0.15	0	
0.65	0.2	0	
0.65	0.25	0	
0.65	0.3	0	
0.65	0.35	0	
0.65	0.4	0	
0.65	0.45	0	
0.65	0.5	0	
0.65	0.55	0	
0.65	0.6	0	
0.65	0.65	0	
0.65	0.7	0	
0.65	0.75	0	
0.65	0.8	0	
0.65	0.85	0	
0.65	0.9	0	
0.65	0.95	0	
0.65	1	0	
0.7	0	0	
0.7	0.05	0	
0.7	0.1	0	
0.7	0.15	0	
0.7	0.2	0	
0.7	0.25	0	
0.7	0.3	0	
0.7	0.35	0	
0.7	0.4	0	
0.7	0.45	0	
0.7	0.5	0	
0.7	0.55	0	
0.7	0.6	0	
0.7	0.65	0	
0.7	0.7	0	
0.7	0.75	0	
0.7	0.8	0	
0.7	0.85	0	
0.7	0.9	0	
0.7	0.95	0	
0.7	1	0	
0.75	0	0	
0.75	0.05	0	
0.75	0.1	0	
0.75	0.15	0	
0.75	0.2	0	
0.75	0.25	0	
0.75	0.3	0	
0.75	0.35	0	
0.75	0.4	0	
0.75	0.45	0	
0.75	0.5	0	
0.75	0.55	0	
0.75	0.6	0	
0.75	0.65	0	
0.75	0.7	0	
0.75	0.75	0	
0.75	0.8	0	
0.75	0.85	0	
0.75	0.9	0	
0.75	0.95	0	
0.75	1	0	
0.8	0	0	
0.8	0.05	0	
0.8	0.1	0	
0.8	0.15	0	
0.8	0.2	0	
0.8	0.25	0	
0.8	0.3	0	
0.8	0.35	0	
0.8	0.4	0	
0.8	0.45	0	
0.8	0.5	0	
0.8	0.55	0	
0.8	0.6	0	
0.8	0.65	0	
0.8	0.7	0	
0.8	0.75	0	
0.8	0.8	0	
0.8	0.85	0	
0.8	0.9	0	
0.8	0.95	0	
0.8	1	0	
0.85	0	0	
0.85	0.05	0	
0.85	0.1	0	
0.85	0.15	0	
0.85	0.2	0	
0.85	0.25	0	
0.85	0.3	0	
0.85	0.35	0	
0.85	0.4	0	
0.85	0.45	0	
0.85	0.5	0	
0.85	0.55	0	
0.85	0.6	0	
0.85	0.65	0	
0.85	0.7	0	
0.85	0.75	0	
0.85	0.8	0	
0.85	0.85	0	
0.85	0.9	0	
0.85	0.95	0	
0.85	1	0	
0.9	0	0	
0.9	0.05	0	
0.9	0.1	0	
0.9	0.15	0	
0.9	0.2	0	
0.9	0.25	0	
0.9	0.3	0	
0.9	0.35	0	
0.9	0.4	0	
0.9	0.45	0	
0.9	0.5	0	
0.9	0.55	0	
0.9	0.6	0	
0.9	0.65	0	
0.9	0.7	0	
0.9	0.75	0	
0.9	0.8	0	
0.9	0.85	0	
0.9	0.9	0	
0.9	0.95	0	
0.9	1	0	
0.95	0	0	
0.95	0.05	0	
0.95	0.1	0	
0.95	0.15	0	
0.95	0.2	0	
0.95	0.25	0	
0.95	0.3	0	
0.95	0.35	0	
0.95	0.4	0	
0.95	0.45	0	
0.95	0.5	0	
0.95	0.55	0	
0.95	0.6	0	
0.95	0.65	0	
0.95	0.7	0	
0.95	0.75	0	
0.95	0.8	0	
0.95	0.85	0	
0.95	0.9	0	
0.95	0.95	0	
0.95	1	0	
1	0	0	
1	0.05	0	
1	0.1	0	
1	0.15	0	
1	0.2	0	
1	0.25	0	
1	0.3	0	
1	0.35	0	
1	0.4	0	
1	0.45	0	
1	0.5	0	
1	0.55	0	
1	0.6	0	
1	0.65	0	
1	0.7	0	
1	0.75	0	
1	0.8	0	
1	0.85	0	
1	0.9	0	
1	0.95	0	
1	1	0	
1.05	0	0	
1.05	0.05	0	
1.05	0.1	0	
1.05	0.15	0	
1.05	0.2	0	
1.05	0.25	0	
1.05	0.3	0	
1.05	0.35	0	
1.05	0.4	0	
1.05	0.45	0	
1.05	0.5	0	
1.05	0.55	0	
1.05	0.6	0	
1.05	0.65	0	
1.05	0.7	0	
1.05	0.75	0	
1.05	0.8	0	
1.05	0.85	0	
1.05	0.9	0	
1.05	0.95	0	
1.05	1	0	
1.1	0	0	
1.1	0.05	0	
1.1	0.1	0	
1.1	0.15	0	
1.1	0.2	0	
1.1	0.25	0	
1.1	0.3	0	
1.1	0.35	0	
1.1	0.4	0	
1.1	0.45	0	
1.1	0.5	0	
1.1	0.55	0	
1.1	0.6	0	
1.1	0.65	0	
1.1	0.7	0	
1.1	0.75	0	
1.1	0.8	0	
1.1	0.85	0	
1.1	0.9	0	
1.1	0.95	0	
1.1	1	0	
1.15	0	0	
1.15	0.05	0	
1.15	0.1	0	
1.15	0.15	0	
1.15	0.2	0	
1.15	0.25	0	
1.15	0.3	0	
1.15	0.35	0	
1.15	0.4	0	
1.15	0.45	0	
1.15	0.5	0	
1.15	0.55	0	
1.15	0.6	0	
1.15	0.65	0	
1.15	0.7	0	
1.15	0.75	0	
1.15	0.8	0	
1.15	0.85	0	
1.15	0.9	0	
1.15	0.95	0	
1.15	1	0	
1.2	0	0	
1.2	0.05	0	
1.2	0.1	0	
1.2	0.15	0	
1.2	0.2	0	
1.2	0.25	0	
1.2	0.3	0	
1.2	0.35	0	
1.2	0.4	0	
1.2	0.45	0	
1.2	0.5	0	
1.2	0.55	0	
1.2	0.6	0	
1.2	0.65	0	
1.2	0.7	0	
1.2	0.75	0	
1.2	0.8	0	
1.2	0.85	0	
1.2	0.9	0	
1.2	0.95	0	
1.2	1	0	
1.25	0	0	
1.25	0.05	0	
1.25	0.1	0	
1.25	0.15	0	
1.25	0.2	0	
1.25	0.25	0	
1.25	0.3	0	
1.25	0.35	0	
1.25	0.4	0	
1.25	0.45	0	
1.25	0.5	0	
1.25	0.55	0	
1.25	0.6	0	
1.25	0.65	0	
1.25	0.7	0	
1.25	0.75	0	
1.25	0.8	0	
1.25	0.85	0	
1.25	0.9	0	
1.25	0.95	0	
1.25	1	0	
1.3	0	0	
1.3	0.05	0	
1.3	0.1	0	
1.3	0.15	0	
1.3	0.2	0	
1.3	0.25	0	
1.3	0.3	0	
1.3	0.35	0	
1.3	0.4	0	
1.3	0.45	0	
1.3	0.5	0	
1.3	0.55	0	
1.3	0.6	0	
1.3	0.65	0	
1.3	0.7	0	
1.3	0.75	0	
1.3	0.8	0	
1.3	0.85	0	
1.3	0.9	0	
1.3	0.95	0	
1.3	1	0	
1.35	0	0	
1.35	0.05	0	
1.35	0.1	0	
1.35	0.15	0	
1.35	0.2	0	
1.35	0.25	0	
1.35	0.3	0	
1.35	0.35	0	
1.35	0.4	0	
1.35	0.45	0	
1.35	0.5	0	
1.35	0.55	0	
1.35	0.6	0	
1.35	0.65	0	
1.35	0.7	0	
1.35	0.75	0	
1.35	0.8	0	
1.35	0.85	0	
1.35	0.9	0	
1.35	0.95	0	
1.35	1	0	
1.4	0	0	
1.4	0.05	0	
1.4	0.1	0	
1.4	0.15	0	
1.4	0.2	0	
1.4	0.25	0	
1.4	0.3	0	
1.4	0.35	0	
1.4	0.4	0	
1.4	0.45	0	
1.4	0.5	0	
1.4	0.55	0	
1.4	0.6	0	
1.4	0.65	0	
1.4	0.7	0	
1.4	0.75	0	
1.4	0.8	0	
1.4	0.85	0	
1.4	0.9	0	
1.4	0.95	0	
1.4	1	0	
1.45	0	0	
1.45	0.05	0	
1.45	0.1	0	
1.45	0.15	0	
1.45	0.2	0	
1.45	0.25	0	
1.45	0.3	0	
1.45	0.35	0	
1.45	0.4	0	
1.45	0.45	0	
1.45	0.5	0	
1.45	0.55	0	
1.45	0.6	0	
1.45	0.65	0	
1.45	0.7	0	
1.45	0.75	0	
1.45	0.8	0	
1.45	0.85	0	
1.45	0.9	0	
1.45	0.95	0	
1.45	1	0	
1.5	0	0	
1.5	0.05	0	
1.5	0.1	0	
1.5	0.15	0	
1.5	0.2	0	
1.5	0.25	0	
1.5	0.3	0	
1.5	0.35	0	
1.5	0.4	0	
1.5	0.45	0	
1.5	0.5	0	
1.5	0.55	0	
1.5	0.6	0	
1.5	0.65	0	
1.5	0.7	0	
1.5	0.75	0	
1.5	0.8	0	
1.5	0.85	0	
1.5	0.9	0	
1.5	0.95	0	
1.5	1	0	
1.55	0	0	
1.55	0.05	0	
1.55	0.1	0	
1.55	0.15	0	
1.55	0.2	0	
1.55	0.25	0	
1.55	0.3	0	
1.55	0.35	0	
1.55	0.4	0	
1.55	0.45	0	
1.55	0.5	0	
1.55	0.55	0	
1.55	0.6	0	
1.55	0.65	0	
1.55	0.7	0	
1.55	0.75	0	
1.55	0.8	0	
1.55	0.85	0	
1.55	0.9	0	
1.55	0.95	0	
1.55	1	0	
1.6	0	0	
1.6	0.05	0	
1.6	0.1	0	
1.6	0.15	0	
1.6	0.2	0	
1.6	0.25	0	
1.6	0.3	0	
1.6	0.35	0	
1.6	0.4	0	
1.6	0.45	0	
1.6	0.5	0	
1.6	0.55	0	
1.6	0.6	0	
1.6	0.65	0	
1.6	0.7	0	
1.6	0.75	0	
1.6	0.8	0	
1.6	0.85	0	
1.6	0.9	0	
1.6	0.95	0	
1.6	1	0	
1.65	0	0	
1.65	0.05	0	
1.65	0.1	0	
1.65	0.15	0	
1.65	0.2	0	
1.65	0.25	0	
1.65	0.3	0	
1.65	0.35	0	
1.65	0.4	0	
1.65	0.45	0	
1.65	0.5	0	
1.65	0.55	0	
1.65	0.6	0	
1.65	0.65	0	
1.65	0.7	0	
1.65	0.75	0	
1.65	0.8	0	
1.65	0.85	0	
1.65	0.9	0	
1.65	0.95	0	
1.65	1	0	
1.7	0	0	
1.7	0.05	0	
1.7	0.1	0	
1.7	0.15	0	
1.7	0.2	0	
1.7	0.25	0	
1.7	0.3	0	
1.7	0.35	0	
1.7	0.4	0	
1.7	0.45	0	
1.7	0.5	0	
1.7	0.55	0	
1.7	0.6	0	
1.7	0.65	0	
1.7	0.7	0	
1.7	0.75	0	
1.7	0.8	0	
1.7	0.85	0	
1.7	0.9	0	
1.7	0.95	0	
1.7	1	0	
1.75	0	0	
1.75	0.05	0	
1.75	0.1	0	
1.75	0.15	0	
1.75	0.2	0	
1.75	0.25	0	
1.75	0.3	0	
1.75	0.35	0	
1.75	0.4	0	
1.75	0.45	0	
1.75	0.5	0	
1.75	0.55	0	
1.75	0.6	0	
1.75	0.65	0	
1.75	0.7	0	
1.75	0.75	0	
1.75	0.8	0	
1.75	0.85	0	
1.75	0.9	0	
1.75	0.95	0	
1.75	1	0	
1.8	0	0	
1.8	0.05	0	
1.8	0.1	0	
1.8	0.15	0	
1.8	0.2	0	
1.8	0.25	0	
1.8	0.3	0	
1.8	0.35	0	
1.8	0.4	0	
1.8	0.45	0	
1.8	0.5	0	
1.8	0.55	0	
1.8	0.6	0	
1.8	0.65	0	
1.8	0.7	0	
1.8	0.75	0	
1.8	0.8	0	
1.8	0.85	0	
1.8	0.9	0	
1.8	0.95	0	
1.8	1	0	
1.85	0	0	
1.85	0.05	0	
1.85	0.1	0	
1.85	0.15	0	
1.85	0.2	0	
1.85	0.25	0	
1.85	0.3	0	
1.85	0.35	0	
1.85	0.4	0	
1.85	0.45	0	
1.85	0.5	0	
1.85	0.55	0	
1.85	0.6	0	
1.85	0.65	0	
1.85	0.7	0	
1.85	0.75	0	
1.85	0.8	0	
1.85	0.85	0	
1.85	0.9	0	
1.85	0.95	0	
1.85	1	0	
1.9	0	0	
1.9	0.05	0	
1.9	0.1	0	
1.9	0.15	0	
1.9	0.2	0	
1.9	0.25	0	
1.9	0.3	0	
1.9	0.35	0	
1.9	0.4	0	
1.9	0.45	0	
1.9	0.5	0	
1.9	0.55	0	
1.9	0.6	0	
1.9	0.65	0	
1.9	0.7	0	
1.9	0.75	0	
1.9	0.8	0	
1.9	0.85	0	
1.9	0.9	0	
1.9	0.95	0	
1.9	1	0	
1.95	0	0	
1.95	0.05	0	
1.95	0.1	0	
1.95	0.15	0	
1.95	0.2	0	
1.95	0.25	0	
1.95	0.3	0	
1.95	0.35	0	
1.95	0.4	0	
1.95	0.45	0	
1.95	0.5	0	
1.95	0.55	0	
1.95	0.6	0	
1.95	0.65	0	
1.95	0.7	0	
1.95	0.75	0	
1.95	0.8	0	
1.95	0.85	0	
1.95	0.9	0	
1.95	0.95	0	
1.95	1	0	
2	0	0	
2	0.05	0	
2	0.1	0	
2	0.15	0	
2	0.2	0	
2	0.25	0	
2	0.3	0	
2	0.35	0	
2	0.4	0	
2	0.45	0	
[...]
POINT_DATA	5001
VECTORS u float
0	0	0	
0	0	0	
0	0	0	
0	0	0	
0	0	0	
0	0	0	
0	0	0	
0	0	0	
0	0	0	
0	0	0	
0	0	0	
0.36	0	0	
0.64	0	0	
0.84	0	0	
0.96	0	0	
1	0	0	
0.96	0	0	
0.84	0	0	
0.64	0	0	
0.36	0	0	
0	0	0	
0	0	0	
-0.00157957	0.00157418	0	
-0.00352244	0.00646326	0	
-0.00484434	0.0141984	0	
-0.00566196	0.0237267	0	
-0.00567181	0.0338521	0	
-0.00607272	0.0439734	0	
-0.00456802	0.0523605	0	
-0.00563791	0.0586839	0	
0.0139437	0.0461547	0	
0.0864427	-0.00273912	0	
0.364736	-0.043593	0	
0.631108	-0.0421828	0	
0.838009	-0.0338078	0	
0.957025	-0.0286721	0	
0.997873	-0.0239375	0	
0.957328	-0.0190632	0	
0.837238	-0.0137251	0	
0.637038	-0.00801334	0	
0.357623	-0.00269605	0	
0	0	0	
0	0	0	
-0.00628141	0.0031871	0	
-0.0121342	0.0115094	0	
-0.0161422	0.0233691	0	
-0.0180211	0.037098	0	
-0.0179773	0.0508402	0	
-0.0158488	0.062474	0	
-0.0110197	0.0690037	0	
0.00241812	0.0647271	0	
0.0398514	0.0407494	0	
0.155167	-0.0109004	0	
0.374243	-0.0555784	0	
0.629165	-0.0656935	0	
0.829714	-0.0615436	0	
0.951103	-0.0540198	0	
0.990798	-0.0458005	0	
0.949919	-0.0365088	0	
0.828932	-0.0261606	0	
0.628617	-0.0151215	0	
0.351029	-0.00500785	0	
0	0	0	
0	0	0	
-0.0131123	0.00402515	0	
-0.0234987	0.013975	0	
-0.0300801	0.0273907	0	
-0.0324925	0.0419919	0	
-0.0306184	0.055325	0	
-0.0239074	0.0645061	0	
-0.00993098	0.0657842	0	
0.0189378	0.053924	0	
0.0811259	0.0237941	0	
0.205605	-0.0213556	0	
0.405253	-0.0621002	0	
0.63322	-0.0809726	0	
0.82404	-0.0818976	0	
0.942494	-0.0748515	0	
0.980462	-0.0643973	0	
0.937957	-0.0515099	0	
0.815672	-0.0366905	0	
0.615227	-0.0208952	0	
0.340815	-0.00672982	0	
0	0	0	
0	0	0	
-0.0207737	0.0041803	0	
-0.0357224	0.0143769	0	
-0.044315	0.0276008	0	
-0.046196	0.0411349	0	
-0.0410063	0.0521902	0	
-0.0276739	0.0576934	0	
-0.00294559	0.0541277	0	
0.0410806	0.03787	0	
0.119405	0.00711031	0	
0.250252	-0.033623	0	
0.435934	-0.071041	0	
0.643544	-0.0924992	0	
0.821159	-0.0972089	0	
0.933225	-0.0913252	0	
0.967513	-0.0795019	0	
0.922194	-0.0636927	0	
0.797996	-0.0450268	0	
0.597609	-0.0251983	0	
0.327858	-0.00788713	0	
0	0	0	
0	0	0	
-0.0283394	0.00396782	0	
-0.0475022	0.0135205	0	
-0.0573924	0.0254896	0	
-0.0577597	0.0369484	0	
-0.0481526	0.0450377	0	
-0.0272846	0.046863	0	
0.00820229	0.0395575	0	
0.0653802	0.0208243	0	
0.155561	-0.0094375	0	
0.289834	-0.0466208	0	
0.465982	-0.0809157	0	
0.656897	-0.102693	0	
0.820445	-0.109318	0	
0.923799	-0.104205	0	
0.952533	-0.0913229	0	
0.903226	-0.0730654	0	
0.776583	-0.0511671	0	
0.576655	-0.0281248	0	
0.313027	-0.00858709	0	
0	0	0	
0	0	0	
-0.0352962	0.00356593	0	
-0.0580646	0.0120018	0	
-0.0685233	0.0221443	0	
-0.0665987	0.0310704	0	
-0.0519302	0.0360469	0	
-0.0233291	0.0345297	0	
0.0221942	0.0243193	0	
0.090411	0.00410747	0	
0.189533	-0.0253481	0	
0.325822	-0.05974	0	
0.494216	-0.0912654	0	
0.670993	-0.112153	0	
0.820802	-0.11924	0	
0.914078	-0.114226	0	
0.935808	-0.100257	0	
0.881537	-0.0798616	0	
0.75215	-0.055309	0	
0.553276	-0.0298673	0	
0.29706	-0.00891526	0	
0	0	0	
0	0	0	
-0.0413852	0.00307863	0	
-0.067004	0.01016	0	
-0.0773292	0.0182055	0	
-0.0725324	0.0244383	0	
-0.0524993	0.0263736	0	
-0.0163637	0.0218729	0	
0.0382384	0.00932528	0	
0.115708	-0.0118867	0	
0.22164	-0.0405229	0	
0.358868	-0.0725797	0	
0.520381	-0.101544	0	
0.684653	-0.120915	0	
0.821214	-0.127477	0	
0.903709	-0.121921	0	
0.917439	-0.106714	0	
0.857542	-0.0844071	0	
0.72539	-0.0577385	0	
0.528299	-0.0306447	0	
0.28056	-0.00896331	0	
0	0	0	
0	0	0	
-0.0464819	0.0025462	0	
-0.0741267	0.00816035	0	
-0.0836626	0.0140009	0	
-0.0755706	0.0175301	0	
-0.0500925	0.0165764	0	
-0.00682182	0.00941007	0	
0.0558676	-0.00508366	0	
0.141046	-0.0270165	0	
0.252133	-0.054858	0	
0.389355	-0.0848575	0	
0.544323	-0.111388	0	
0.697096	-0.128875	0	
0.820922	-0.134251	0	
0.892325	-0.127648	0	
0.897464	-0.111057	0	
0.831616	-0.0870424	0	
0.696949	-0.058761	0	
0.502438	-0.0306714	0	
0.263993	-0.00880688	0	
0	0	0	
0	0	0	
-0.0505199	0.00198591	0	
-0.0793482	0.00607643	0	
-0.0874971	0.00968678	0	
-0.0758098	0.0105756	0	
-0.0449514	0.0069145	0	
0.0049557	-0.00263714	0	
0.0747651	-0.0187748	0	
0.166306	-0.0412271	0	
0.281153	-0.0682695	0	
0.417499	-0.0963584	0	
0.565963	-0.120518	0	
0.707861	-0.135893	0	
0.819388	-0.13965	0	
0.879637	-0.131647	0	
0.875931	-0.113585	0	
0.804123	-0.0880842	0	
0.667411	-0.0586607	0	
0.47628	-0.0301351	0	
0.247703	-0.0085088	0	
0	0	0	
0	0	0	
-0.0534581	0.0014042	0	
-0.0826382	0.00394373	0	
-0.0888678	0.00534212	0	
-0.073386	0.00369185	0	
-0.0373123	-0.0024835	0	
0.0186799	-0.014162	0	
0.0946798	-0.0316825	0	
0.191373	-0.054472	0	
0.30876	-0.0806707	0	
0.44341	-0.10691	0	
0.585241	-0.128724	0	
0.716646	-0.141841	0	
0.816256	-0.143708	0	
0.865463	-0.134088	0	
0.852934	-0.114549	0	
0.775426	-0.0878113	0	
0.637296	-0.0576848	0	
0.450296	-0.0291897	0	
0.231936	-0.00811666	0	
0	0	0	
0	0	0	
-0.055269	0.000806577	0	
-0.0839974	0.00178661	0	
-0.087845	0.00101905	0	
-0.068457	-0.00304566	0	
-0.0274073	-0.0115344	0	
0.0340875	-0.0250917	0	
0.115384	-0.0437504	0	
0.216123	-0.0666952	0	
0.33495	-0.0919715	0	
0.467132	-0.116367	0	
0.602117	-0.135839	0	
0.723273	-0.146615	0	
0.811316	-0.146437	0	
0.849728	-0.135103	0	
0.828628	-0.114162	0	
0.745888	-0.0864641	0	
0.607054	-0.0560391	0	
0.42485	-0.0279565	0	
0.216859	-0.00766582	0	
0	0	0	
0	0	0	
-0.0559375	0.000199487	0	
-0.0834495	-0.000370184	0	
-0.0845237	-0.00323443	0	
-0.0611953	-0.00957002	0	
-0.0154683	-0.0201635	0	
0.0509261	-0.035355	0	
0.136656	-0.0549132	0	
0.240414	-0.0778273	0	
0.359679	-0.10208	0	
0.488677	-0.124608	0	
0.616569	-0.141736	0	
0.727647	-0.150135	0	
0.804472	-0.147854	0	
0.832452	-0.134807	0	
0.803214	-0.112608	0	
0.715867	-0.0842473	0	
0.577076	-0.053891	0	
0.400222	-0.0265286	0	
0.202582	-0.00718158	0	
0	0	0	
0	0	0	
-0.0554625	-0.000408616	0	
-0.0810409	-0.00249812	0	
-0.079021	-0.00736662	0	
-0.0517873	-0.0158114	0	
-0.00173005	-0.0282925	0	
0.0689478	-0.0448733	0	
0.158278	-0.0650954	0	
0.264097	-0.0877904	0	
0.382882	-0.110906	0	
0.508036	-0.13153	0	
0.628594	-0.146321	0	
0.729746	-0.152352	0	
0.795724	-0.147986	0	
0.813738	-0.133309	0	
0.776941	-0.110053	0	
0.685707	-0.0813354	0	
0.54769	-0.0513753	0	
0.376618	-0.024976	0	
0.18917	-0.00668186	0	
0	0	0	
0	0	0	
-0.0538599	-0.0010077	0	
-0.0768418	-0.00456484	0	
-0.0714756	-0.0113212	0	
-0.040433	-0.0216955	0	
0.0135688	-0.0358381	0	
0.0879067	-0.0535627	0	
0.180033	-0.074216	0	
0.287018	-0.0965062	0	
0.404486	-0.118373	0	
0.525206	-0.137057	0	
0.638219	-0.149531	0	
0.729605	-0.153246	0	
0.785147	-0.146879	0	
0.793753	-0.130721	0	
0.750081	-0.106648	0	
0.655732	-0.0778784	0	
0.519169	-0.0486003	0	
0.35419	-0.0233518	0	
0.176659	-0.00617924	0	
0	0	0	
0	0	0	
-0.0511647	-0.0015866	0	
-0.0709479	-0.00653562	0	
-0.0620483	-0.0150394	0	
-0.0273458	-0.027146	0	
0.0301854	-0.0427159	0	
0.10756	-0.061339	0	
0.201709	-0.0821967	0	
0.309027	-0.103904	0	
0.424421	-0.124416	0	
0.54019	-0.141137	0	
0.645498	-0.151338	0	
0.727315	-0.152827	0	
0.77288	-0.144597	0	
0.772713	-0.127159	0	
0.722921	-0.102537	0	
0.626238	-0.0740053	0	
0.491735	-0.0456536	0	
0.333038	-0.0216957	0	
0.16506	-0.00568254	0	
0	0	0	
0	0	0	
-0.0474316	-0.00213378	0	
-0.0634798	-0.00837528	0	
-0.0509206	-0.0184628	0	
-0.0127508	-0.0320891	0	
0.0478743	-0.0488462	0	
0.127668	-0.068125	0	
0.223105	-0.088969	0	
0.329986	-0.109928	0	
0.442632	-0.128995	0	
0.553011	-0.143746	0	
0.650516	-0.151743	0	
0.723009	-0.151138	0	
0.759113	-0.141226	0	
0.750869	-0.122746	0	
0.695749	-0.09785	0	
0.597488	-0.0698285	0	
0.465562	-0.0426061	0	
0.31323	-0.0200382	0	
0.15437	-0.00519797	0	
0	0	0	
0	0	0	
-0.0427356	-0.00263793	0	
-0.0545824	-0.0100503	0	
-0.0382928	-0.0215375	0	
0.00311728	-0.0364581	0	
0.0663902	-0.054159	0	
0.148001	-0.0738565	0	
0.244031	-0.0944813	0	
0.349774	-0.114543	0	
0.45908	-0.132096	0	
0.563718	-0.144894	0	
0.653391	-0.150785	0	
0.716863	-0.148247	0	
0.744073	-0.136871	0	
0.728491	-0.117607	0	
0.668844	-0.092714	0	
0.569711	-0.065446	0	
0.440783	-0.0395157	0	
0.294799	-0.0184024	0	
0.144571	-0.00472991	0	
0	0	0	
0	0	0	
-0.03717	-0.00308873	0	
-0.0444222	-0.0115306	0	
-0.0243804	-0.0242163	0	
0.0200178	-0.0401971	0	
0.0854911	-0.0585994	0	
0.16834	-0.0784878	0	
0.264315	-0.098704	0	
0.36829	-0.117741	0	
0.47375	-0.133733	0	
0.572381	-0.144621	0	
0.654271	-0.14853	0	
0.709082	-0.144251	0	
0.72801	-0.131652	0	
0.705852	-0.111873	0	
0.642461	-0.0872457	0	
0.543097	-0.0609432	0	
0.417492	-0.0364297	0	
0.277756	-0.016806	0	
0.135637	-0.00428142	0	
0	0	0	
0	0	0	
-0.0308445	-0.00347736	0	
-0.033183	-0.0127916	0	
-0.00941029	-0.0264623	0	
0.0377084	-0.0432649	0	
0.104942	-0.0621307	0	
0.18848	-0.0819952	0	
0.283806	-0.101633	0	
0.385456	-0.119542	0	
0.486654	-0.133951	0	
0.5791	-0.142997	0	
0.653328	-0.145075	0	
0.699897	-0.139268	0	
0.711188	-0.125699	0	
0.68322	-0.105673	0	
0.616833	-0.0815537	0	
0.5178	-0.0563943	0	
0.395749	-0.0333868	0	
0.262089	-0.0152625	0	
0.127536	-0.00385459	0	
0	0	0	
0	0	0	
-0.0238815	-0.00379707	0	
-0.0210617	-0.0138149	0	
0.00638487	-0.0282499	0	
0.0559491	-0.0456366	0	
0.12452	-0.0647371	0	
0.208234	-0.0843792	0	
0.302375	-0.10329	0	
0.401221	-0.119993	0	
0.497828	-0.132826	0	
0.583997	-0.140122	0	
0.650758	-0.140538	0	
0.68955	-0.133431	0	
0.693872	-0.119152	0	
0.660849	-0.0991335	0	
0.59216	-0.075737	0	
0.493937	-0.0518629	0	
0.375585	-0.0304185	0	
0.247774	-0.0137821	0	
0.120231	-0.0034508	0	
0	0	0	
0	0	0	
-0.0164128	-0.00404345	0	
-0.00826263	-0.0145899	0	
0.0227713	-0.0295666	0	
0.0745071	-0.0473052	0	
0.144015	-0.0664246	0	
0.227436	-0.0856652	0	
0.31992	-0.103726	0	
0.41556	-0.119171	0	
0.507334	-0.130458	0	
0.587217	-0.136119	0	
0.646769	-0.135059	0	
0.678292	-0.126886	0	
0.67632	-0.112148	0	
0.638967	-0.0923739	0	
0.568605	-0.0698847	0	
0.47159	-0.0474032	0	
0.357006	-0.0275495	0	
0.23477	-0.0123723	0	
0.113683	-0.00307085	0	
0	0	0	
0	0	0	
-0.00857465	-0.00421462	0	
0.00500789	-0.0151134	0	
0.0395195	-0.0304131	0	
0.0931613	-0.0482815	0	
0.163236	-0.0672205	0	
0.245945	-0.0859022	0	
0.336362	-0.103014	0	
0.428475	-0.117174	0	
0.515257	-0.12697	0	
0.588921	-0.131128	0	
0.641581	-0.128788	0	
0.666368	-0.119783	0	
0.658773	-0.104826	0	
0.617774	-0.0855063	0	
0.546301	-0.0640748	0	
0.450809	-0.0430599	0	
0.339995	-0.0247994	0	
0.223029	-0.0110382	0	
0.107847	-0.00271508	0	
0	0	0	
0	0	0	
-0.000503763	-0.00431123	0	
0.018547	-0.01539	0	
0.0564094	-0.0308028	0	
0.111705	-0.0485932	0	
0.182012	-0.0671717	0	
0.263641	-0.0851606	0	
0.351651	-0.10125	0	
0.439991	-0.114124	0	
0.5217	-0.122503	0	
0.58928	-0.125304	0	
0.635411	-0.121883	0	
0.654014	-0.112272	0	
0.641449	-0.0973162	0	
0.597439	-0.0786313	0	
0.525344	-0.0583747	0	
0.431616	-0.0388695	0	
0.324517	-0.0221827	0	
0.212492	-0.00978317	0	
0.10268	-0.00238348	0	
0	0	0	
0	0	0	
0.00766709	-0.00433632	0	
0.0321607	-0.0154313	0	
0.0732346	-0.0307606	0	
0.129952	-0.0482831	0	
0.200196	-0.0663427	0	
0.280431	-0.0835286	0	
0.365759	-0.0985461	0	
0.450154	-0.110155	0	
0.526782	-0.117208	0	
0.588474	-0.118806	0	
0.628475	-0.114501	0	
0.64145	-0.104497	0	
0.624541	-0.0897378	0	
0.578097	-0.0718378	0	
0.505798	-0.0528402	0	
0.414006	-0.0348605	0	
0.310523	-0.0197096	0	
0.203097	-0.0086088	0	
0.0981387	-0.00207575	0	
0	0	0	
0	0	0	
0.0158129	-0.004295	0	
0.0456679	-0.0152548	0	
0.0898059	-0.0303215	0	
0.147734	-0.0474066	0	
0.217662	-0.0648117	0	
0.296245	-0.0811086	0	
0.378682	-0.0950288	0	
0.45903	-0.105411	0	
0.530633	-0.111244	0	
0.586681	-0.111796	0	
0.620975	-0.106796	0	
0.628875	-0.0965924	0	
0.608209	-0.0821987	0	
0.559852	-0.0652019	0	
0.487697	-0.047517	0	
0.397955	-0.0310543	0	
0.297953	-0.0173868	0	
0.194778	-0.00751551	0	
0.0941784	-0.00179135	0	
0	0	0	
0	0	0	
0.0238194	-0.00419406	0	
0.0589048	-0.0148833	0	
0.105955	-0.0295283	0	
0.164908	-0.046029	0	
0.23431	-0.0626672	0	
0.311039	-0.0780121	0	
0.390437	-0.09083	0	
0.466698	-0.100043	0	
0.533389	-0.104767	0	
0.584076	-0.104428	0	
0.613101	-0.0989121	0	
0.61646	-0.0886808	0	
0.592586	-0.0747928	0	
0.542775	-0.0587866	0	
0.47105	-0.0424405	0	
0.38342	-0.027466	0	
0.286736	-0.0152179	0	
0.187465	-0.00650262	0	
0.0907558	-0.0015296	0	
0	0	0	
0	0	0	
0.0315861	-0.00404156	0	
0.0717272	-0.0143429	0	
0.121535	-0.0284295	0	
0.181352	-0.0442221	0	
0.250061	-0.0600043	0	
0.324787	-0.0743559	0	
0.401057	-0.0860845	0	
0.473249	-0.0941957	0	
0.535187	-0.0979281	0	
0.580825	-0.0968496	0	
0.605023	-0.0909789	0	
0.604355	-0.0808693	0	
0.577773	-0.067599	0	
0.526909	-0.0526424	0	
0.455842	-0.0376371	0	
0.370344	-0.0241054	0	
0.276796	-0.0132038	0	
0.18109	-0.00556862	0	
0.0878286	-0.00128967	0	
0	0	0	
0	0	0	
0.0390273	-0.00384629	0	
0.0840127	-0.0136621	0	
0.136423	-0.0270769	0	
0.19697	-0.0420614	0	
0.264858	-0.0569208	0	
0.337483	-0.0702571	0	
0.41059	-0.0809248	0	
0.47878	-0.0880115	0	
0.536161	-0.0908692	0	
0.577082	-0.0891926	0	
0.59689	-0.0831124	0	
0.592678	-0.0732494	0	
0.563843	-0.0606818	0	
0.512272	-0.0468079	0	
0.44204	-0.0331248	0	
0.358659	-0.0209772	0	
0.268053	-0.0113432	0	
0.175583	-0.00471136	0	
0.0853558	-0.00107066	0	
0	0	0	
0	0	0	
0.0460737	-0.00361737	0	
0.0956614	-0.0128703	0	
0.150522	-0.0255236	0	
0.211685	-0.0396232	0	
0.278667	-0.0535137	0	
0.349138	-0.0658301	0	
0.419095	-0.0754773	0	
0.48339	-0.081622	0	
0.536442	-0.0837196	0	
0.572986	-0.0815753	0	
0.588829	-0.0754118	0	
0.581527	-0.0658967	0	
0.550845	-0.0540916	0	
0.498859	-0.041311	0	
0.429596	-0.0289145	0	
0.348288	-0.0180824	0	
0.260426	-0.00963353	0	
0.170875	-0.0039282	0	
0.0832979	-0.000871591	0	
0	0	0	
0	0	0	
0.052672	-0.00336383	0	
0.106596	-0.0119962	0	
0.163755	-0.0238215	0	
0.225446	-0.0369816	0	
0.291469	-0.0498763	0	
0.359777	-0.0611829	0	
0.426636	-0.0698593	0	
0.487181	-0.0751468	0	
0.53615	-0.0765934	0	
0.568662	-0.0740991	0	
0.580948	-0.0679595	0	
0.570971	-0.058871	0	
0.538803	-0.0478658	0	
0.486649	-0.03617	0	
0.418449	-0.0250112	0	
0.339151	-0.0154188	0	
0.253831	-0.00807041	0	
0.1669	-0.00321613	0	
0.0816174	-0.000691489	0	
0	0	0	
0	0	0	
0.0587848	-0.00309423	0	
0.116763	-0.0110676	0	
0.17607	-0.0220203	0	
0.238218	-0.0342069	0	
0.303262	-0.0460958	0	
0.369433	-0.056415	0	
0.433284	-0.0641766	0	
0.490249	-0.0686914	0	
0.535397	-0.069589	0	
0.564217	-0.0668484	0	
0.573331	-0.0608213	0	
0.561059	-0.0522175	0	
0.527722	-0.0420299	0	
0.475604	-0.0313948	0	
0.40853	-0.0214146	0	
0.331163	-0.0129815	0	
0.248185	-0.00664871	0	
0.163592	-0.00257192	0	
0.0802782	-0.000529346	0	
0	0	0	
0	0	0	
0.0643892	-0.00281641	0	
0.126126	-0.0101098	0	
0.187436	-0.0201657	0	
0.249987	-0.0313635	0	
0.314059	-0.0422516	0	
0.378151	-0.0516153	0	
0.439113	-0.058522	0	
0.492689	-0.0623462	0	
0.534283	-0.0627881	0	
0.559741	-0.0598912	0	
0.566045	-0.0540475	0	
0.551821	-0.045968	0	
0.517591	-0.0365993	0	
0.465675	-0.0269883	0	
0.399764	-0.0181201	0	
0.324238	-0.0107637	0	
0.243409	-0.00536251	0	
0.16089	-0.00199218	0	
0.0792463	-0.000384162	0	
0	0	0	
0	0	0	
0.069476	-0.00253728	0	
0.13467	-0.00914535	0	
0.197839	-0.0182984	0	
0.260753	-0.0285088	0	
0.323882	-0.0384137	0	
0.38598	-0.0468616	0	
0.444193	-0.0529751	0	
0.494585	-0.0561869	0	
0.532895	-0.0562568	0	
0.55531	-0.0532795	0	
0.559138	-0.0476743	0	
0.543271	-0.0401428	0	
0.508384	-0.0315804	0	
0.456805	-0.0229474	0	
0.392073	-0.0151202	0	
0.318291	-0.00875673	0	
0.239424	-0.00420534	0	
0.158734	-0.00147343	0	
0.0784894	-0.000254945	0	
0	0	0	
0	0	0	
0.0740473	-0.00226273	0	
0.142397	-0.00819377	0	
0.207283	-0.0164537	0	
0.270532	-0.0256925	0	
0.332764	-0.0346424	0	
0.392972	-0.0422196	0	
0.448594	-0.0476018	0	
0.496018	-0.0502739	0	
0.53131	-0.0500459	0	
0.550985	-0.0470513	0	
0.552644	-0.0417252	0	
0.535408	-0.0347517	0	
0.500068	-0.0269725	0	
0.448931	-0.0192645	0	
0.385376	-0.0124043	0	
0.313237	-0.00695114	0	
0.236154	-0.00317038	0	
0.157069	-0.00101214	0	
0.0779772	-0.000140716	0	
0	0	0	
0	0	0	
0.0781152	-0.00199759	0	
0.149322	-0.00727114	0	
0.215788	-0.0146614	0	
0.27935	-0.0229564	0	
0.340744	-0.0309881	0	
0.399181	-0.0377434	0	
0.452385	-0.0424547	0	
0.497059	-0.0446543	0	
0.529593	-0.0441926	0	
0.546811	-0.0412317	0	
0.546582	-0.0362127	0	
0.528219	-0.029796	0	
0.492599	-0.0227686	0	
0.441986	-0.0159281	0	
0.379593	-0.00996023	0	
0.308995	-0.00533647	0	
0.233529	-0.0022506	0	
0.15584	-0.00060477	0	
0.0776813	-4.05136e-005	0	
0	0	0	
0	0	0	
0.0816995	-0.00174561	0	
0.155472	-0.00639028	0	
0.223384	-0.012945	0	
0.287242	-0.0203341	0	
0.347867	-0.0274911	0	
0.404663	-0.0334757	0	
0.455627	-0.0375745	0	
0.497771	-0.039362	0	
0.527799	-0.0387218	0	
0.542826	-0.0358347	0	
0.540961	-0.0311401	0	
0.521684	-0.02527	0	
0.48593	-0.0189569	0	
0.435902	-0.0129238	0	
0.374646	-0.0077741	0	
0.305487	-0.00390175	0	
0.23148	-0.00143881	0	
0.154999	-0.00024779	0	
0.077575	4.66078e-005	0	
0	0	0	
0	0	0	
0.0848262	-0.00150955	0	
0.160884	-0.00556085	0	
0.230111	-0.011323	0	
0.294253	-0.0178518	0	
0.354182	-0.0241824	0	
0.409473	-0.0294488	0	
0.458379	-0.0329905	0	
0.498209	-0.0344202	0	
0.525972	-0.0336477	0	
0.539052	-0.030865	0	
0.535782	-0.0265031	0	
0.515776	-0.0211625	0	
0.480009	-0.0155219	0	
0.430611	-0.0102351	0	
0.370457	-0.00583117	0	
0.302638	-0.00263565	0	
0.229943	-0.000727807	0	
0.154499	6.22867e-005	0	
0.0776334	0.000121575	0	
0	0	0	
0	0	0	
0.0875258	-0.00129127	0	
0.165602	-0.00478963	0	
0.236018	-0.00980831	0	
0.300431	-0.0155282	0	
0.35974	-0.0210844	0	
0.413665	-0.0256852	0	
0.460694	-0.0287219	0	
0.498422	-0.0298421	0	
0.524146	-0.0289756	0	
0.535508	-0.0263195	0	
0.531036	-0.0222913	0	
0.510463	-0.0174577	0	
0.474783	-0.0124454	0	
0.426044	-0.00784422	0	
0.366954	-0.00411606	0	
0.300377	-0.00152673	0	
0.228858	-0.000110424	0	
0.154296	0.000328902	0	
0.0778336	0.000185299	0	
0	0	0	
0	0	0	
0.0898314	-0.00109184	0	
0.169674	-0.00408079	0	
0.241156	-0.00840957	0	
0.305831	-0.0133759	0	
0.364595	-0.0182119	0	
0.41729	-0.022199	0	
0.46262	-0.0247794	0	
0.498451	-0.0256324	0	
0.52235	-0.0247033	0	
0.5322	-0.0221888	0	
0.52671	-0.0184893	0	
0.50571	-0.0141366	0	
0.470198	-0.00970736	0	
0.422136	-0.00573218	0	
0.364067	-0.00261309	0	
0.298639	-0.000563521	0	
0.228171	0.000420434	0	
0.15435	0.000555434	0	
0.0781543	0.000238668	0	
0	0	0	
0	0	0	
0.0917779	-0.000911652	0	
0.173151	-0.0034363	0	
0.245584	-0.0071312	0	
0.310507	-0.0114019	0	
0.3688	-0.0155728	0	
0.420398	-0.0189972	0	
0.464203	-0.0211665	0	
0.49833	-0.0217892	0	
0.520604	-0.0208225	0	
0.529133	-0.0184589	0	
0.522787	-0.0150786	0	
0.501479	-0.011178	0	
0.466202	-0.00728627	0	
0.418824	-0.00387963	0	
0.361729	-0.0013065	0	
0.297362	0.000265301	0	
0.227828	0.000871725	0	
0.154623	0.000745184	0	
0.0785758	0.000282552	0	
0	0	0	
0	0	0	
0.0934003	-0.000750559	0	
0.176087	-0.00285628	0	
0.24936	-0.00597426	0	
0.314519	-0.00960801	0	
0.372406	-0.0131693	0	
0.423035	-0.0160803	0	
0.46548	-0.0178802	0	
0.498088	-0.0183048	0	
0.518924	-0.0173202	0	
0.526304	-0.0151118	0	
0.519246	-0.0120377	0	
0.497733	-0.0085591	0	
0.462742	-0.00516009	0	
0.416049	-0.00226709	0	
0.35988	-0.000180706	0	
0.296489	0.000970853	0	
0.227783	0.00125023	0	
0.155083	0.000901368	0	
0.0790805	0.000317799	0	
0	0	0	
0	0	0	
0.0947335	-0.000607988	0	
0.178535	-0.00233937	0	
0.252542	-0.00493704	0	
0.317923	-0.00799247	0	
0.375468	-0.0109987	0	
0.425247	-0.0134437	0	
0.466488	-0.0149129	0	
0.497749	-0.0151673	0	
0.517319	-0.01418	0	
0.523706	-0.0121272	0	
0.516064	-0.00934371	0	
0.494433	-0.00625635	0	
0.459769	-0.00330654	0	
0.413754	-0.000875252	0	
0.358462	0.000779555	0	
0.295967	0.00156394	0	
0.227992	0.00156254	0	
0.155698	0.0010271	0	
0.0796519	0.000345229	0	
0	0	0	
0	0	0	
0.0958109	-0.000483043	0	
0.180546	-0.00188305	0	
0.25519	-0.00401558	0	
0.320776	-0.00655014	0	
0.378034	-0.0090544	0	
0.427075	-0.0110788	0	
0.467258	-0.0122527	0	
0.497334	-0.0123613	0	
0.515796	-0.0113827	0	
0.521332	-0.00948278	0	
0.513217	-0.00697282	0	
0.491542	-0.00424591	0	
0.457236	-0.00170356	0	
0.411886	0.000314793	0	
0.357423	0.0015891	0	
0.295748	0.002055	0	
0.228416	0.00181497	0	
0.156439	0.00112537	0	
0.0802755	0.000365636	0	
0	0	0	
0	0	0	
0.0966642	-0.000374605	0	
0.182171	-0.00148398	0	
0.257359	-0.0032043	0	
0.323133	-0.00527343	0	
0.380155	-0.00732703	0	
0.428559	-0.00897389	0	
0.467819	-0.00988521	0	
0.496858	-0.00986879	0	
0.514357	-0.00890739	0	
0.51917	-0.00715543	0	
0.510682	-0.00490078	0	