# vtk DataFile Version 4.1
vtk output
ASCII
DATASET UNSTRUCTURED_GRID

POINTS	5001	float
0	0	0	
0	0.05	0	
0	0.1	0	
0	0.15	0	
0	0.2	0	
0	0.25	0	
0	0.3	0	
0	0.35	0	
0	0.4	0	
0	0.45	0	
0	0.5	0	
0	0.55	0	
0	0.6	0	
0	0.65	0	
0	0.7	0	
0	0.75	0	
0	0.8	0	
0	0.85	0	
0	0.9	0	
0	0.95	0	
0	1	0	
0.05	0	0	
0.05	0.05	0	
0.05	0.1	0	
0.05	0.15	0	
0.05	0.2	0	
0.05	0.25	0	
0.05	0.3	0	
0.05	0.35	0	
0.05	0.4	0	
0.05	0.45	0	
0.05	0.5	0	
0.05	0.55	0	
0.05	0.6	0	
0.05	0.65	0	
0.05	0.7	0	
0.05	0.75	0	
0.05	0.8	0	
0.05	0.85	0	
0.05	0.9	0	
0.05	0.95	0	
0.05	1	0	
0.1	0	0	
0.1	0.05	0	
0.1	0.1	0	
0.1	0.15	0	
0.1	0.2	0	
0.1	0.25	0	
0.1	0.3	0	
0.1	0.35	0	
0.1	0.4	0	
0.1	0.45	0	
0.1	0.5	0	
0.1	0.55	0	
0.1	0.6	0	
0.1	0.65	0	
0.1	0.7	0	
0.1	0.75	0	
0.1	0.8	0	
0.1	0.85	0	
0.1	0.9	0	
0.1	0.95	0	
0.1	1	0	
0.15	0	0	
0.15	0.05	0	
0.15	0.1	0	
0.15	0.15	0	
0.15	0.2	0	
0.15	0.25	0	
0.15	0.3	0	
0.15	0.35	0	
0.15	0.4	0	
0.15	0.45	0	
0.15	0.5	0	
0.15	0.55	0	
0.15	0.6	0	
0.15	0.65	0	
0.15	0.7	0	
0.15	0.75	0	
0.15	0.8	0	
0.15	0.85	0	
0.15	0.9	0	
0.15	0.95	0	
0.15	1	0	
0.2	0	0	
0.2	0.05	0	
0.2	0.1	0	
0.2	0.15	0	
0.2	0.2	0	
0.2	0.25	0	
0.2	0.3	0	
0.2	0.35	0	
0.2	0.4	0	
0.2	0.45	0	
0.2	0.5	0	
0.2	0.55	0	
0.2	0.6	0	
0.2	0.65	0	
0.2	0.7	0	
0.2	0.75	0	
0.2	0.8	0	
0.2	0.85	0	
0.2	0.9	0	
0.2	0.95	0	
0.2	1	0	
0.25	0	0	
0.25	0.05	0	
0.25	0.1	0	
0.25	0.15	0	
0.25	0.2	0	
0.25	0.25	0	
0.25	0.3	0	
0.25	0.35	0	
0.25	0.4	0	
0.25	0.45	0	
0.25	0.5	0	
0.25	0.55	0	
0.25	0.6	0	
0.25	0.65	0	
0.25	0.7	0	
0.25	0.75	0	
0.25	0.8	0	
0.25	0.85	0	
0.25	0.9	0	
0.25	0.95	0	
0.25	1	0	
0.3	0	0	
0.3	0.05	0	
0.3	0.1	0	
0.3	0.15	0	
0.3	0.2	0	
0.3	0.25	0	
0.3	0.3	0	
0.3	0.35	0	
0.3	0.4	0	
0.3	0.45	0	
0.3	0.5	0	
0.3	0.55	0	
0.3	0.6	0	
0.3	0.65	0	
0.3	0.7	0	
0.3	0.75	0	
0.3	0.8	0	
0.3	0.85	0	
0.3	0.9	0	
0.3	0.95	0	
0.3	1	0	
0.35	0	0	
0.35	0.05	0	
0.35	0.1	0	
0.35	0.15	0	
0.35	0.2	0	
0.35	0.25	0	
0.35	0.3	0	
0.35	0.35	0	
0.35	0.4	0	
0.35	0.45	0	
0.35	0.5	0	
0.35	0.55	0	
0.35	0.6	0	
0.35	0.65	0	
0.35	0.7	0	
0.35	0.75	0	
0.35	0.8	0	
0.35	0.85	0	
0.35	0.9	0	
0.35	0.95	0	
0.35	1	0	
0.4	0	0	
0.4	0.05	0	
0.4	0.1	0	
0.4	0.15	0	
0.4	0.2	0	
0.4	0.25	0	
0.4	0.3	0	
0.4	0.35	0	
0.4	0.4	0	
0.4	0.45	0	
0.4	0.5	0	
0.4	0.55	0	
0.4	0.6	0	
0.4	0.65	0	
0.4	0.7	0	
0.4	0.75	0	
0.4	0.8	0	
0.4	0.85	0	
0.4	0.9	0	
0.4	0.95	0	
0.4	1	0	
0.45	0	0	
0.45	0.05	0	
0.45	0.1	0	
0.45	0.15	0	
0.45	0.2	0	
0.45	0.25	0	
0.45	0.3	0	
0.45	0.35	0	
0.45	0.4	0	
0.45	0.45	0	
0.45	0.5	0	
0.45	0.55	0	
0.45	0.6	0	
0.45	0.65	0	
0.45	0.7	0	
0.45	0.75	0	
0.45	0.8	0	
0.45	0.85	0	
0.45	0.9	0	
0.45	0.95	0	
0.45	1	0	
0.5	0	0	
0.5	0.05	0	
0.5	0.1	0	
0.5	0.15	0	
0.5	0.2	0	
0.5	0.25	0	
0.5	0.3	0	
0.5	0.35	0	
0.5	0.4	0	
0.5	0.45	0	
0.5	0.5	0	
0.5	0.55	0	
0.5	0.6	0	
0.5	0.65	0	
0.5	0.7	0	
0.5	0.75	0	
0.5	0.8	0	
0.5	0.85	0	
0.5	0.9	0	
0.5	0.95	0	
0.5	1	0	
0.55	0	0	
0.55	0.05	0	
0.55	0.1	0	
0.55	0.15	0	
0.55	0.2	0	
0.55	0.25	0	
0.55	0.3	0	
0.55	0.35	0	
0.55	0.4	0	
0.55	0.45	0	
0.55	0.5	0	
0.55	0.55	0	
0.55	0.6	0	
0.55	0.65	0	
0.55	0.7	0	
0.55	0.75	0	
0.55	0.8	0	
0.55	0.85	0	
0.55	0.9	0	
0.55	0.95	0	
0.55	1	0	
0.6	0	0	
0.6	0.05	0	
0.6	0.1	0	
0.6	0.15	0	
0.6	0.2	0	
0.6	0.25	0	
0.6	0.3	0	
0.6	0.35	0	
0.6	0.4	0	
0.6	0.45	0	
0.6	0.5	0	
0.6	0.55	0	
0.6	0.6	0	
0.6	0.65	0	
0.6	0.7	0	
0.6	0.75	0	
0.6	0.8	0	
0.6	0.85	0	
0.6	0.9	0	
0.6	0.95	0	
0.6	1	0	
0.65	0	0	
0.65	0.05	0	
0.65	0.1	0	
0.65	0.15	0	
0.65	0.2	0	
0.65	0.25	0	
0.65	0.3	0	
0.65	0.35	0	
0.65	0.4	0	
0.65	0.45	0	
0.65	0.5	0	
0.65	0.55	0	
0.65	0.6	0	
0.65	0.65	0	
0.65	0.7	0	
0.65	0.75	0	
0.65	0.8	0	
0.65	0.85	0	
0.65	0.9	0	
0.65	0.95	0	
0.65	1	0	
0.7	0	0	
0.7	0.05	0	
0.7	0.1	0	
0.7	0.15	0	
0.7	0.2	0	
0.7	0.25	0	
0.7	0.3	0	
0.7	0.35	0	
0.7	0.4	0	
0.7	0.45	0	
0.7	0.5	0	
0.7	0.55	0	
0.7	0.6	0	
0.7	0.65	0	
0.7	0.7	0	
0.7	0.75	0	
0.7	0.8	0	
0.7	0.85	0	
0.7	0.9	0	
0.7	0.95	0	
0.7	1	0	
0.75	0	0	
0.75	0.05	0	
0.75	0.1	0	
0.75	0.15	0	
0.75	0.2	0	
0.75	0.25	0	
0.75	0.3	0	
0.75	0.35	0	
0.75	0.4	0	
0.75	0.45	0	
0.75	0.5	0	
0.75	0.55	0	
0.75	0.6	0	
0.75	0.65	0	
0.75	0.7	0	
0.75	0.75	0	
0.75	0.8	0	
0.75	0.85	0	
0.75	0.9	0	
0.75	0.95	0	
0.75	1	0	
0.8	0	0	
0.8	0.05	0	
0.8	0.1	0	
0.8	0.15	0	
0.8	0.2	0	
0.8	0.25	0	
0.8	0.3	0	
0.8	0.35	0	
0.8	0.4	0	
0.8	0.45	0	
0.8	0.5	0	
0.8	0.55	0	
0.8	0.6	0	
0.8	0.65	0	
0.8	0.7	0	
0.8	0.75	0	
0.8	0.8	0	
0.8	0.85	0	
0.8	0.9	0	
0.8	0.95	0	
0.8	1	0	
0.85	0	0	
0.85	0.05	0	
0.85	0.1	0	
0.85	0.15	0	
0.85	0.2	0	
0.85	0.25	0	
0.85	0.3	0	
0.85	0.35	0	
0.85	0.4	0	
0.85	0.45	0	
0.85	0.5	0	
0.85	0.55	0	
0.85	0.6	0	
0.85	0.65	0	
0.85	0.7	0	
0.85	0.75	0	
0.85	0.8	0	
0.85	0.85	0	
0.85	0.9	0	
0.85	0.95	0	
0.85	1	0	
0.9	0	0	
0.9	0.05	0	
0.9	0.1	0	
0.9	0.15	0	
0.9	0.2	0	
0.9	0.25	0	
0.9	0.3	0	
0.9	0.35	0	
0.9	0.4	0	
0.9	0.45	0	
0.9	0.5	0	
0.9	0.55	0	
0.9	0.6	0	
0.9	0.65	0	
0.9	0.7	0	
0.9	0.75	0	
0.9	0.8	0	
0.9	0.85	0	
0.9	0.9	0	
0.9	0.95	0	
0.9	1	0	
0.95	0	0	
0.95	0.05	0	
0.95	0.1	0	
0.95	0.15	0	
0.95	0.2	0	
0.95	0.25	0	
0.95	0.3	0	
0.95	0.35	0	
0.95	0.4	0	
0.95	0.45	0	
0.95	0.5	0	
0.95	0.55	0	
0.95	0.6	0	
0.95	0.65	0	
0.95	0.7	0	
0.95	0.75	0	
0.95	0.8	0	
0.95	0.85	0	
0.95	0.9	0	
0.95	0.95	0	
0.95	1	0	
1	0	0	
1	0.05	0	
1	0.1	0	
1	0.15	0	
1	0.2	0	
1	0.25	0	
1	0.3	0	
1	0.35	0	
1	0.4	0	
1	0.45	0	
1	0.5	0	
1	0.55	0	
1	0.6	0	
1	0.65	0	
1	0.7	0	
1	0.75	0	
1	0.8	0	
1	0.85	0	
1	0.9	0	
1	0.95	0	
1	1	0	
1.05	0	0	
1.05	0.05	0	
1.05	0.1	0	
1.05	0.15	0	
1.05	0.2	0	
1.05	0.25	0	
1.05	0.3	0	
1.05	0.35	0	
1.05	0.4	0	
1.05	0.45	0	
1.05	0.5	0	
1.05	0.55	0	
1.05	0.6	0	
1.05	0.65	0	
1.05	0.7	0	
1.05	0.75	0	
1.05	0.8	0	
1.05	0.85	0	
1.05	0.9	0	
1.05	0.95	0	
1.05	1	0	
1.1	0	0	
1.1	0.05	0	
1.1	0.1	0	
1.1	0.15	0	
1.1	0.2	0	
1.1	0.25	0	
1.1	0.3	0	
1.1	0.35	0	
1.1	0.4	0	
1.1	0.45	0	
1.1	0.5	0	
1.1	0.55	0	
1.1	0.6	0	
1.1	0.65	0	
1.1	0.7	0	
1.1	0.75	0	
1.1	0.8	0	
1.1	0.85	0	
1.1	0.9	0	
1.1	0.95	0	
1.1	1	0	
1.15	0	0	
1.15	0.05	0	
1.15	0.1	0	
1.15	0.15	0	
1.15	0.2	0	
1.15	0.25	0	
1.15	0.3	0	
1.15	0.35	0	
1.15	0.4	0	
1.15	0.45	0	
1.15	0.5	0	
1.15	0.55	0	
1.15	0.6	0	
1.15	0.65	0	
1.15	0.7	0	
1.15	0.75	0	
1.15	0.8	0	
1.15	0.85	0	
1.15	0.9	0	
1.15	0.95	0	
1.15	1	0	
1.2	0	0	
1.2	0.05	0	
1.2	0.1	0	
1.2	0.15	0	
1.2	0.2	0	
1.2	0.25	0	
1.2	0.3	0	
1.2	0.35	0	
1.2	0.4	0	
1.2	0.45	0	
1.2	0.5	0	
1.2	0.55	0	
1.2	0.6	0	
1.2	0.65	0	
1.2	0.7	0	
1.2	0.75	0	
1.2	0.8	0	
1.2	0.85	0	
1.2	0.9	0	
1.2	0.95	0	
1.2	1	0	
1.25	0	0	
1.25	0.05	0	
1.25	0.1	0	
1.25	0.15	0	
1.25	0.2	0	
1.25	0.25	0	
1.25	0.3	0	
1.25	0.35	0	
1.25	0.4	0	
1.25	0.45	0	
1.25	0.5	0	
1.25	0.55	0	
1.25	0.6	0	
1.25	0.65	0	
1.25	0.7	0	
1.25	0.75	0	
1.25	0.8	0	
1.25	0.85	0	
1.25	0.9	0	
1.25	0.95	0	
1.25	1	0	
1.3	0	0	
1.3	0.05	0	
1.3	0.1	0	
1.3	0.15	0	
1.3	0.2	0	
1.3	0.25	0	
1.3	0.3	0	
1.3	0.35	0	
1.3	0.4	0	
1.3	0.45	0	
1.3	0.5	0	
1.3	0.55	0	
1.3	0.6	0	
1.3	0.65	0	
1.3	0.7	0	
1.3	0.75	0	
1.3	0.8	0	
1.3	0.85	0	
1.3	0.9	0	
1.3	0.95	0	
1.3	1	0	
1.35	0	0	
1.35	0.05	0	
1.35	0.1	0	
1.35	0.15	0	
1.35	0.2	0	
1.35	0.25	0	
1.35	0.3	0	
1.35	0.35	0	
1.35	0.4	0	
1.35	0.45	0	
1.35	0.5	0	
1.35	0.55	0	
1.35	0.6	0	
1.35	0.65	0	
1.35	0.7	0	
1.35	0.75	0	
1.35	0.8	0	
1.35	0.85	0	
1.35	0.9	0	
1.35	0.95	0	
1.35	1	0	
1.4	0	0	
1.4	0.05	0	
1.4	0.1	0	
1.4	0.15	0	
1.4	0.2	0	
1.4	0.25	0	
1.4	0.3	0	
1.4	0.35	0	
1.4	0.4	0	
1.4	0.45	0	
1.4	0.5	0	
1.4	0.55	0	
1.4	0.6	0	
1.4	0.65	0	
1.4	0.7	0	
1.4	0.75	0	
1.4	0.8	0	
1.4	0.85	0	
1.4	0.9	0	
1.4	0.95	0	
1.4	1	0	
1.45	0	0	
1.45	0.05	0	
1.45	0.1	0	
1.45	0.15	0	
1.45	0.2	0	
1.45	0.25	0	
1.45	0.3	0	
1.45	0.35	0	
1.45	0.4	0	
1.45	0.45	0	
1.45	0.5	0	
1.45	0.55	0	
1.45	0.6	0	
1.45	0.65	0	
1.45	0.7	0	
1.45	0.75	0	
1.45	0.8	0	
1.45	0.85	0	
1.45	0.9	0	
1.45	0.95	0	
1.45	1	0	
1.5	0	0	
1.5	0.05	0	
1.5	0.1	0	
1.5	0.15	0	
1.5	0.2	0	
1.5	0.25	0	
1.5	0.3	0	
1.5	0.35	0	
1.5	0.4	0	
1.5	0.45	0	
1.5	0.5	0	
1.5	0.55	0	
1.5	0.6	0	
1.5	0.65	0	
1.5	0.7	0	
1.5	0.75	0	
1.5	0.8	0	
1.5	0.85	0	
1.5	0.9	0	
1.5	0.95	0	
1.5	1	0	
1.55	0	0	
1.55	0.05	0	
1.55	0.1	0	
1.55	0.15	0	
1.55	0.2	0	
1.55	0.25	0	
1.55	0.3	0	
1.55	0.35	0	
1.55	0.4	0	
1.55	0.45	0	
1.55	0.5	0	
1.55	0.55	0	
1.55	0.6	0	
1.55	0.65	0	
1.55	0.7	0	
1.55	0.75	0	
1.55	0.8	0	
1.55	0.85	0	
1.55	0.9	0	
1.55	0.95	0	
1.55	1	0	
1.6	0	0	
1.6	0.05	0	
1.6	0.1	0	
1.6	0.15	0	
1.6	0.2	0	
1.6	0.25	0	
1.6	0.3	0	
1.6	0.35	0	
1.6	0.4	0	
1.6	0.45	0	
1.6	0.5	0	
1.6	0.55	0	
1.6	0.6	0	
1.6	0.65	0	
1.6	0.7	0	
1.6	0.75	0	
1.6	0.8	0	
1.6	0.85	0	
1.6	0.9	0	
1.6	0.95	0	
1.6	1	0	
1.65	0	0	
1.65	0.05	0	
1.65	0.1	0	
1.65	0.15	0	
1.65	0.2	0	
1.65	0.25	0	
1.65	0.3	0	
1.65	0.35	0	
1.65	0.4	0	
1.65	0.45	0	
1.65	0.5	0	
1.65	0.55	0	
1.65	0.6	0	
1.65	0.65	0	
1.65	0.7	0	
1.65	0.75	0	
1.65	0.8	0	
1.65	0.85	0	
1.65	0.9	0	
1.65	0.95	0	
1.65	1	0	
1.7	0	0	
1.7	0.05	0	
1.7	0.1	0	
1.7	0.15	0	
1.7	0.2	0	
1.7	0.25	0	
1.7	0.3	0	
1.7	0.35	0	
1.7	0.4	0	
1.7	0.45	0	
1.7	0.5	0	
1.7	0.55	0	
1.7	0.6	0	
1.7	0.65	0	
1.7	0.7	0	
1.7	0.75	0	
1.7	0.8	0	
1.7	0.85	0	
1.7	0.9	0	
1.7	0.95	0	
1.7	1	0	
1.75	0	0	
1.75	0.05	0	
1.75	0.1	0	
1.75	0.15	0	
1.75	0.2	0	
1.75	0.25	0	
1.75	0.3	0	
1.75	0.35	0	
1.75	0.4	0	
1.75	0.45	0	
1.75	0.5	0	
1.75	0.55	0	
1.75	0.6	0	
1.75	0.65	0	
1.75	0.7	0	
1.75	0.75	0	
1.75	0.8	0	
1.75	0.85	0	
1.75	0.9	0	
1.75	0.95	0	
1.75	1	0	
1.8	0	0	
1.8	0.05	0	
1.8	0.1	0	
1.8	0.15	0	
1.8	0.2	0	
1.8	0.25	0	
1.8	0.3	0	
1.8	0.35	0	
1.8	0.4	0	
1.8	0.45	0	
1.8	0.5	0	
1.8	0.55	0	
1.8	0.6	0	
1.8	0.65	0	
1.8	0.7	0	
1.8	0.75	0	
1.8	0.8	0	
1.8	0.85	0	
1.8	0.9	0	
1.8	0.95	0	
1.8	1	0	
1.85	0	0	
1.85	0.05	0	
1.85	0.1	0	
1.85	0.15	0	
1.85	0.2	0	
1.85	0.25	0	
1.85	0.3	0	
1.85	0.35	0	
1.85	0.4	0	
1.85	0.45	0	
1.85	0.5	0	
1.85	0.55	0	
1.85	0.6	0	
1.85	0.65	0	
1.85	0.7	0	
1.85	0.75	0	
1.85	0.8	0	
1.85	0.85	0	
1.85	0.9	0	
1.85	0.95	0	
1.85	1	0	
1.9	0	0	
1.9	0.05	0	
1.9	0.1	0	
1.9	0.15	0	
1.9	0.2	0	
1.9	0.25	0	
1.9	0.3	0	
1.9	0.35	0	
1.9	0.4	0	
1.9	0.45	0	
1.9	0.5	0	
1.9	0.55	0	
1.9	0.6	0	
1.9	0.65	0	
1.9	0.7	0	
1.9	0.75	0	
1.9	0.8	0	
1.9	0.85	0	
1.9	0.9	0	
1.9	0.95	0	
1.9	1	0	
1.95	0	0	
1.95	0.05	0	
1.95	0.1	0	
1.95	0.15	0	
1.95	0.2	0	
1.95	0.25	0	
1.95	0.3	0	
1.95	0.35	0	
1.95	0.4	0	
1.95	0.45	0	
1.95	0.5	0	
1.95	0.55	0	
1.95	0.6	0	
1.95	0.65	0	
1.95	0.7	0	
1.95	0.75	0	
1.95	0.8	0	
1.95	0.85	0	
1.95	0.9	0	
1.95	0.95	0	
1.95	1	0	
2	0	0	
2	0.05	0	
2	0.1	0	
2	0.15	0	
2	0.2	0	
2	0.25	0	
2	0.3	0	
2	0.35	0	
2	0.4	0	
2	0.45	0	
[...]
POINT_DATA	5001
VECTORS u float
0	0	0	
0	0	0	
0	0	0	
0	0	0	
0	0	0	
0	0	0	
0	0	0	
0	0	0	
0	0	0	
0	0	0	
0	0	0	
0.36	0	0	
0.64	0	0	
0.84	0	0	
0.96	0	0	
1	0	0	
0.96	0	0	
0.84	0	0	
0.64	0	0	
0.36	0	0	
0	0	0	
0	0	0	
0.000464778	-0.000452446	0	
0.000515633	-0.00136217	0	
-8.86541e-006	-0.00178856	0	
-0.00127267	-0.000606563	0	
-0.00264547	0.00288902	0	
-0.00460079	0.00917529	0	
-0.00466439	0.0169107	0	
-0.00786432	0.0270615	0	
0.0027668	0.0276773	0	
0.0543138	0.0125707	0	
0.366641	-0.00627888	0	
0.636838	-0.00352455	0	
0.841086	-0.00419896	0	
0.95942	-0.00320125	0	
1.00004	-0.00324169	0	
0.959675	-0.00265623	0	
0.839727	-0.00220111	0	
0.639601	-0.00148685	0	
0.359541	-0.000746144	0	
0	0	0	
0	0	0	
0.0014637	-0.000678802	0	
0.00150672	-0.00188741	0	
-0.000402386	-0.0022613	0	
-0.00402091	-0.000490589	0	
-0.00858612	0.00424438	0	
-0.0126159	0.0118607	0	
-0.0148341	0.0210391	0	
-0.0125536	0.0284529	0	
0.00139237	0.0287046	0	
0.0911457	0.00933438	0	
0.359869	-0.00770076	0	
0.637302	-0.00689863	0	
0.840233	-0.00712909	0	
0.959189	-0.00654159	0	
0.999433	-0.0062248	0	
0.958978	-0.00532601	0	
0.838761	-0.00429746	0	
0.63846	-0.0029091	0	
0.358238	-0.0013272	0	
0	0	0	
0	0	0	
0.00262625	-0.000649825	0	
0.00250048	-0.00178864	0	
-0.000975339	-0.00203959	0	
-0.00727133	-0.000169437	0	
-0.0148068	0.00448495	0	
-0.0211243	0.0116316	0	
-0.0231402	0.0196644	0	
-0.0164726	0.0251433	0	
0.0115145	0.0222168	0	
0.112615	0.00709435	0	
0.365447	-0.00743412	0	
0.638476	-0.00893539	0	
0.840069	-0.00984942	0	
0.95888	-0.00952225	0	
0.998634	-0.00901506	0	
0.957827	-0.00783243	0	
0.837201	-0.00628109	0	
0.636549	-0.00422387	0	
0.356109	-0.00183048	0	
0	0	0	
0	0	0	
0.00357262	-0.000421358	0	
0.00325368	-0.00114968	0	
-0.00169198	-0.00108803	0	
-0.0103808	0.000786466	0	
-0.0204922	0.00496119	0	
-0.0284795	0.0110545	0	
-0.0297976	0.0175111	0	
-0.0182511	0.0213069	0	
0.0200928	0.018067	0	
0.130519	0.00511929	0	
0.370905	-0.00775423	0	
0.640003	-0.0109544	0	
0.840252	-0.012204	0	
0.958569	-0.0121767	0	
0.99762	-0.0115952	0	
0.956264	-0.0101542	0	
0.835059	-0.00811732	0	
0.633902	-0.00542024	0	
0.353199	-0.00225269	0	
0	0	0	
0	0	0	
0.00400212	-4.23552e-005	0	
0.00344126	-4.72077e-005	0	
-0.00270791	0.00061379	0	
-0.0132888	0.00263472	0	
-0.0253337	0.00629216	0	
-0.0343972	0.0111774	0	
-0.0347512	0.0160028	0	
-0.0187746	0.0183498	0	
0.0281039	0.0147081	0	
0.145302	0.00337308	0	
0.378666	-0.00849731	0	
0.642459	-0.0126419	0	
0.840913	-0.0143516	0	
0.95839	-0.0146161	0	
0.996487	-0.0139618	0	
0.954343	-0.0122916	0	
0.832372	-0.00980346	0	
0.630541	-0.00649287	0	
0.349601	-0.0026089	0	
0	0	0	
0	0	0	
0.00371105	0.000397064	0	
0.00278753	0.00128592	0	
-0.0042413	0.00274206	0	
-0.0160871	0.00505408	0	
-0.0293086	0.00826971	0	
-0.038826	0.0119945	0	
-0.0380632	0.0152545	0	
-0.0182677	0.0162364	0	
0.0356303	0.0122364	0	
0.158446	0.00180254	0	
0.386179	-0.00934096	0	
0.645137	-0.014287	0	
0.841922	-0.0163621	0	
0.958267	-0.0168396	0	
0.995204	-0.0161551	0	
0.952074	-0.0142629	0	
0.829163	-0.011345	0	
0.626509	-0.00745034	0	
0.345389	-0.00290665	0	
0	0	0	
0	0	0	
0.00267905	0.000772278	0	
0.00121107	0.00248091	0	
-0.00639229	0.00471082	0	
-0.0188751	0.00735503	0	
-0.0325385	0.0102602	0	
-0.0419215	0.0130498	0	
-0.0398831	0.0149936	0	
-0.0167772	0.0147651	0	
0.0429601	0.0102801	0	
0.170518	0.000424655	0	
0.394519	-0.01031	0	
0.64859	-0.0157983	0	
0.84328	-0.0182448	0	
0.958233	-0.0189325	0	
0.993816	-0.018197	0	
0.949487	-0.0160848	0	
0.825458	-0.0127592	0	
0.621835	-0.00830432	0	
0.340648	-0.00315717	0	
0	0	0	
0	0	0	
0.00109687	0.000976802	0	
-0.00110992	0.00319996	0	
-0.0090789	0.00596338	0	
-0.0217207	0.00887786	0	
-0.0352623	0.0116431	0	
-0.0440244	0.0138556	0	
-0.040498	0.014873	0	
-0.0143994	0.0136775	0	
0.0502861	0.00872562	0	
0.181892	-0.000841452	0	
0.402785	-0.0112861	0	
0.652311	-0.0172715	0	
0.844885	-0.0200559	0	
0.958243	-0.0208934	0	
0.992283	-0.0201161	0	
0.946578	-0.0177872	0	
0.821273	-0.0140631	0	
0.616559	-0.00906922	0	
0.335438	-0.00336883	0	
0	0	0	
0	0	0	
-0.000702368	0.000971979	0	
-0.00380241	0.0032942	0	
-0.0120839	0.00623994	0	
-0.0246697	0.00931624	0	
-0.0377842	0.0121264	0	
-0.0455659	0.0141489	0	
-0.0402779	0.0146588	0	
-0.011296	0.0127848	0	
0.0577146	0.00740937	0	
0.192857	-0.00200594	0	
0.411466	-0.0123106	0	
0.656635	-0.0186846	0	
0.846766	-0.0217857	0	
0.958303	-0.0227745	0	
0.990632	-0.0219413	0	
0.943366	-0.0193889	0	
0.816622	-0.0152771	0	
0.610704	-0.00976096	0	
0.329821	-0.00355041	0	
0	0	0	
0	0	0	
-0.00237181	0.000794422	0	
-0.00645179	0.0028494	0	
-0.0151626	0.00566295	0	
-0.0277634	0.00881092	0	
-0.0403921	0.0118228	0	
-0.0469385	0.0139601	0	
-0.0395668	0.0142871	0	
-0.00764325	0.0119721	0	
0.0652898	0.00625227	0	
0.203553	-0.00312036	0	
0.42019	-0.0133436	0	
0.661238	-0.0200817	0	
0.84884	-0.0234829	0	
0.958389	-0.0245866	0	
0.988831	-0.0236943	0	
0.939839	-0.020919	0	
0.811512	-0.0164204	0	
0.604299	-0.0103936	0	
0.323839	-0.00370912	0	
0	0	0	
0	0	0	
-0.00366817	0.00052908	0	
-0.00875508	0.00211363	0	
-0.0181433	0.00462151	0	
-0.0310391	0.00780033	0	
-0.04328	0.0111013	0	
-0.0483974	0.0135096	0	
-0.0385992	0.0138277	0	
-0.00358009	0.0112142	0	
0.0730291	0.00519522	0	
0.21412	-0.00419376	0	
0.42919	-0.0144161	0	
0.666309	-0.0214685	0	
0.851145	-0.025147	0	
0.9585	-0.0263658	0	
0.986894	-0.0254054	0	
0.936008	-0.022397	0	
0.805947	-0.0175123	0	
0.59736	-0.0109826	0	
0.31753	-0.00385147	0	
0	0	0	
0	0	0	
-0.00450826	0.000269457	0	
-0.0105972	0.00136914	0	
-0.0209649	0.00355372	0	
-0.0345129	0.00675927	0	
-0.0465146	0.0103518	0	
-0.050039	0.0130471	0	
-0.0374811	0.0133977	0	
0.000824021	0.0105318	0	
0.0809524	0.004223	0	
0.224629	-0.00524798	0	
0.438303	-0.0155124	0	
0.671652	-0.02287	0	
0.853617	-0.026818	0	
0.95862	-0.0281312	0	
0.984796	-0.0270949	0	
0.931856	-0.0238493	0	
0.799924	-0.0185718	0	
0.589904	-0.0115402	0	
0.310919	-0.00398302	0	
0	0	0	
0	0	0	
-0.0049551	8.40083e-005	0	
-0.0120309	0.000821056	0	
-0.0236494	0.00276501	0	
-0.0381657	0.00600132	0	
-0.0500573	0.00982561	0	
-0.0518477	0.0127434	0	
-0.0362256	0.0130956	0	
0.00556091	0.00996478	0	
0.0890974	0.00333466	0	
0.23517	-0.00628077	0	
0.44766	-0.0166516	0	
0.677379	-0.0243006	0	
0.856292	-0.028505	0	
0.958749	-0.0299125	0	
0.982541	-0.0287929	0	
0.927384	-0.0252965	0	
0.793438	-0.0196164	0	
0.581936	-0.0120799	0	
0.304025	-0.00410854	0	
0	0	0	
0	0	0	
-0.00515738	-9.15668e-008	0	
-0.0131996	0.00054967	0	
-0.0262507	0.00236574	0	
-0.0419511	0.00563141	0	
-0.0538219	0.00960892	0	
-0.0537627	0.0126681	0	
-0.0348043	0.012974	0	
0.0106616	0.00954233	0	
0.0975217	0.00253791	0	
0.245811	-0.00729991	0	
0.4572	-0.01783	0	
0.683384	-0.0257807	0	
0.859127	-0.0302434	0	
0.958873	-0.0317348	0	
0.980108	-0.0305214	0	
0.922571	-0.0267629	0	
0.786473	-0.0206641	0	
0.573459	-0.0126123	0	
0.296857	-0.00423203	0	
0	0	0	
0	0	0	
-0.00527913	7.11938e-006	0	
-0.0142588	0.000528161	0	
-0.0288205	0.00231302	0	
-0.0458193	0.00560427	0	
-0.057726	0.00967247	0	
-0.0557266	0.0128122	0	
-0.0331845	0.0130374	0	
0.0161702	0.00927293	0	
0.106296	0.00183299	0	
0.25664	-0.00830819	0	
0.467019	-0.0190677	0	
0.689742	-0.0273332	0	
0.862153	-0.0320527	0	
0.958991	-0.0336277	0	
0.977491	-0.0323103	0	
0.917405	-0.0282701	0	
0.779012	-0.0217309	0	
0.564467	-0.0131484	0	
0.28942	-0.00435675	0	
0	0	0	
0	0	0	
-0.00544871	7.41426e-005	0	
-0.015327	0.000670007	0	
-0.0313947	0.00248346	0	
-0.0497356	0.00579685	0	
-0.0617158	0.00992024	0	
-0.0577056	0.0131104	0	
-0.0313498	0.0132439	0	
0.022125	0.00913253	0	
0.115497	0.00120414	0	
0.267736	-0.00932571	0	
0.477114	-0.0203802	0	
0.696404	-0.0289864	0	
0.865344	-0.0339708	0	
0.959089	-0.0356216	0	
0.974667	-0.0341845	0	
0.911858	-0.0298408	0	
0.771029	-0.0228331	0	
0.554948	-0.0136968	0	
0.28171	-0.00448512	0	
0	0	0	
0	0	0	
-0.00573473	0.00016263	0	
-0.0164635	0.000867977	0	
-0.0339866	0.00272233	0	
-0.0536793	0.00604587	0	
-0.0657674	0.0102073	0	
-0.0596936	0.0134441	0	
-0.0293079	0.0135024	0	
0.0285434	0.0090582	0	
0.125191	0.000609771	0	
0.279186	-0.0103838	0	
0.487567	-0.0218048	0	
0.703426	-0.0307774	0	
0.868722	-0.0360289	0	
0.95916	-0.0377495	0	
0.971619	-0.0361738	0	
0.905904	-0.0314959	0	
0.762492	-0.0239841	0	
0.544883	-0.0142649	0	
0.273722	-0.00461874	0	
0	0	0	
0	0	0	
-0.00614016	0.000234621	0	
-0.01766	0.0010124	0	
-0.0365746	0.00286294	0	
-0.0576296	0.00615875	0	
-0.0698753	0.0103412	0	
-0.0617098	0.013639	0	
-0.027097	0.0136674	0	
0.0354096	0.00894128	0	
0.135425	-2.36124e-005	0	
0.291064	-0.0115382	0	
0.4984	-0.0233849	0	
0.710786	-0.0327496	0	
0.872263	-0.0382705	0	
0.959181	-0.0400452	0	
0.968314	-0.0383031	0	
0.899501	-0.0332548	0	
0.753361	-0.0251957	0	
0.534249	-0.0148575	0	
0.265445	-0.0047581	0	
0	0	0	
0	0	0	
-0.00660437	0.000254821	0	
-0.0188378	0.000998962	0	
-0.0390893	0.00273842	0	
-0.0615435	0.00592614	0	
-0.074036	0.010092	0	
-0.0637957	0.0134707	0	
-0.0247904	0.0135439	0	
0.0426646	0.00863008	0	
0.146211	-0.000801969	0	
0.303432	-0.0128623	0	
0.509673	-0.0251816	0	
0.718515	-0.0349539	0	
0.875973	-0.0407344	0	
0.959132	-0.0425409	0	
0.964718	-0.0405979	0	
0.892608	-0.0351328	0	
0.74359	-0.0264755	0	
0.523014	-0.0154771	0	
0.256867	-0.00490262	0	
0	0	0	
0	0	0	
-0.00700985	0.000193127	0	
-0.0198518	0.000739853	0	
-0.0414068	0.00220472	0	
-0.0653378	0.00515372	0	
-0.0782268	0.0092246	0	
-0.0660056	0.0126903	0	
-0.0224985	0.0129062	0	
0.0502004	0.00794277	0	
0.157518	-0.00185633	0	
0.316322	-0.0144477	0	
0.521397	-0.0272599	0	
0.726589	-0.037441	0	
0.879815	-0.0434617	0	
0.958975	-0.0452656	0	
0.960783	-0.0430759	0	
0.885167	-0.0371404	0	
0.733125	-0.027827	0	
0.511148	-0.0161223	0	
0.247978	-0.00505038	0	
0	0	0	
0	0	0	
-0.00719707	3.00161e-005	0	
-0.0205103	0.000183279	0	
-0.0433568	0.00117761	0	
-0.0688772	0.00371318	0	
-0.0823824	0.0075534	0	
-0.0683896	0.011073	0	
-0.0203627	0.0115344	0	
0.0578625	0.00669493	0	
0.169263	-0.00332472	0	
0.329735	-0.0163885	0	
0.533589	-0.0296865	0	
0.735004	-0.0402581	0	
0.883768	-0.0464828	0	
0.958668	-0.0482389	0	
0.956457	-0.0457488	0	
0.87712	-0.0392807	0	
0.721908	-0.0292472	0	
0.498614	-0.0167879	0	
0.23877	-0.00519822	0	
0	0	0	
0	0	0	
-0.00699121	-0.000236234	0	
-0.0206117	-0.000663989	0	
-0.0447493	-0.000326803	0	
-0.0719755	0.00160062	0	
-0.0863701	0.00501237	0	
-0.0709644	0.00848303	0	
-0.0185367	0.00926708	0	
0.0654632	0.00473819	0	
0.181325	-0.00532579	0	
0.343633	-0.0187674	0	
0.546221	-0.0325131	0	
0.743711	-0.0434372	0	
0.887773	-0.0498172	0	
0.958154	-0.0514694	0	
0.951677	-0.0486165	0	
0.868396	-0.0415479	0	
0.709878	-0.0307267	0	
0.485381	-0.0174645	0	
0.229238	-0.00534176	0	
0	0	0	
0	0	0	
-0.00624038	-0.000583703	0	
-0.0199956	-0.00172089	0	
-0.0454184	-0.00216327	0	
-0.0744178	-0.00101267	0	
-0.0899752	0.00172876	0	
-0.0736754	0.00495105	0	
-0.0171535	0.0060619	0	
0.0728083	0.00200554	0	
0.193558	-0.00792634	0	
0.357951	-0.0216319	0	
0.559256	-0.0357664	0	
0.752667	-0.0469888	0	
0.891783	-0.0534638	0	
0.957372	-0.0549498	0	
0.946375	-0.0516677	0	
0.858926	-0.0439268	0	
0.696974	-0.0322487	0	
0.471418	-0.0181391	0	
0.219388	-0.00547571	0	
0	0	0	
0	0	0	
-0.00485853	-0.000965943	0	
-0.0185991	-0.0028321	0	
-0.0452821	-0.00405253	0	
-0.0760139	-0.00375193	0	
-0.0929087	-0.00191367	0	
-0.0763483	0.000750337	0	
-0.0162735	0.00205624	0	
0.0797377	-0.00144539	0	
0.205821	-0.0111104	0	
0.372609	-0.0249757	0	
0.572635	-0.0394323	0	
0.761804	-0.0508928	0	
0.895726	-0.0574004	0	
0.956257	-0.0586564	0	
0.940482	-0.0548777	0	
0.848634	-0.0463925	0	
0.683134	-0.0337904	0	
0.456707	-0.0187951	0	
0.209232	-0.00559426	0	
0	0	0	
0	0	0	
-0.00286249	-0.00131832	0	
-0.0165073	-0.00378721	0	
-0.0444112	-0.00560516	0	
-0.0766846	-0.00604623	0	
-0.0948527	-0.00524313	0	
-0.0786413	-0.00354184	0	
-0.0158134	-0.00238189	0	
0.0861799	-0.00539988	0	
0.218023	-0.014756	0	
0.387537	-0.0287226	0	
0.586301	-0.0434513	0	
0.771066	-0.055098	0	
0.899548	-0.0615823	0	
0.954746	-0.0625507	0	
0.933928	-0.0582122	0	
0.837449	-0.0489131	0	
0.668305	-0.0353238	0	
0.441237	-0.0194141	0	
0.198794	-0.0056917	0	
0	0	0	
0	0	0	
-0.00039198	-0.00157091	0	
-0.0139871	-0.00435392	0	
-0.0430948	-0.0063678	0	
-0.0765667	-0.0071783	0	
-0.0955542	-0.007327	0	
-0.0800134	-0.00702378	0	
-0.015456	-0.00662518	0	
0.0922171	-0.00947409	0	
0.230161	-0.0186294	0	
0.402707	-0.0327249	0	
0.600216	-0.0477182	0	
0.780403	-0.059525	0	
0.903196	-0.065949	0	
0.952783	-0.0665842	0	
0.926648	-0.0616299	0	
0.825303	-0.051452	0	
0.65244	-0.0368189	0	
0.425013	-0.0199776	0	
0.18811	-0.00576293	0	
0	0	0	
0	0	0	
0.00229213	-0.00166323	0	
-0.0115056	-0.00431163	0	
-0.0418914	-0.00587274	0	
-0.0761	-0.00636632	0	
-0.0949507	-0.00708006	0	
-0.0797474	-0.00853047	0	
-0.0145511	-0.00980203	0	
0.0981581	-0.0131343	0	
0.242375	-0.0224033	0	
0.418166	-0.0367786	0	
0.614385	-0.0520986	0	
0.7898	-0.0640813	0	
0.906641	-0.0704346	0	
0.950325	-0.0707077	0	
0.918585	-0.0650903	0	
0.812132	-0.0539735	0	
0.635502	-0.0382464	0	
0.408051	-0.0204688	0	
0.177222	-0.00580406	0	
0	0	0	
0	0	0	
0.0048259	-0.00155243	0	
-0.0097367	-0.00346618	0	
-0.0416535	-0.00366497	0	
-0.0760462	-0.00284868	0	
-0.09326	-0.00345186	0	
-0.0770581	-0.00682821	0	
-0.0120464	-0.010895	0	
0.104605	-0.0157619	0	
0.254975	-0.0257088	0	
0.434063	-0.0406629	0	
0.628869	-0.0564573	0	
0.799274	-0.0686829	0	
0.909872	-0.0749856	0	
0.947336	-0.0748829	0	
0.909682	-0.0685611	0	
0.797874	-0.056447	0	
0.617461	-0.0395808	0	
0.390386	-0.020874	0	
0.166183	-0.00581276	0	
0	0	0	
0	0	0	
0.00675874	-0.00120592	0	
-0.00957098	-0.00162882	0	
-0.043521	0.000708017	0	
-0.0774035	0.00404655	0	
-0.0909215	0.00433669	0	
-0.0712622	-0.000969895	0	
-0.00652451	-0.00897657	0	
0.112486	-0.0167819	0	
0.268462	-0.0282248	0	
0.450659	-0.0442007	0	
0.643801	-0.0607016	0	
0.808885	-0.0732835	0	
0.912899	-0.0795779	0	
0.94379	-0.0790933	0	
0.899886	-0.0720246	0	
0.782469	-0.0588515	0	
0.598298	-0.0408031	0	
0.372062	-0.0211842	0	
0.155051	-0.00578826	0	
0	0	0	
0	0	0	
0.00754244	-0.000575531	0	
-0.0121348	0.00143908	0	
-0.0488573	0.00771775	0	
-0.081189	0.0148	0	
-0.0883229	0.0165219	0	
-0.0618975	0.00924322	0	
0.00355866	-0.00360636	0	
0.123004	-0.0158653	0	
0.283499	-0.0297989	0	
0.468311	-0.0473356	0	
0.659363	-0.0648274	0	
0.818711	-0.0779019	0	
0.915739	-0.0842352	0	
0.939656	-0.083355	0	
0.889133	-0.0754836	0	
0.765852	-0.061178	0	
0.577997	-0.0419015	0	
0.353135	-0.0213944	0	
0.143885	-0.00573115	0	
0	0	0	
0	0	0	
0.00647635	0.000434086	0	
-0.0187976	0.00607165	0	
-0.0590678	0.0177877	0	
-0.0880604	0.0294374	0	
-0.0854049	0.0324487	0	
-0.0486844	0.0228462	0	
0.0194188	0.00471203	0	
0.137433	-0.013173	0	
0.300811	-0.0305693	0	
0.487414	-0.0501984	0	
0.675753	-0.0689556	0	
0.828834	-0.0826417	0	
0.918392	-0.0890353	0	
0.934882	-0.0877173	0	
0.877341	-0.0789605	0	
0.747946	-0.0634279	0	
0.556546	-0.0428701	0	
0.333669	-0.0215033	0	
0.132745	-0.00564279	0	
0	0	0	
0	0	0	
0.00263242	0.00197267	0	
-0.0310899	0.0126363	0	
-0.0751902	0.0309801	0	
-0.0977876	0.0470089	0	
-0.0813951	0.0501691	0	
-0.0314386	0.0375513	0	
0.041442	0.0142962	0	
0.156746	-0.00953021	0	
0.321026	-0.0310319	0	
0.508309	-0.0531356	0	
0.693127	-0.0733416	0	
0.839287	-0.0876895	0	
0.920819	-0.0941071	0	
0.929381	-0.0922592	0	
0.864396	-0.0824916	0	
0.728654	-0.0656084	0	
0.53393	-0.0437057	0	
0.313731	-0.0215107	0	
0.121692	-0.00552467	0	
0	0	0	
0	0	0	
-0.005155	0.00420286	0	
-0.0503979	0.0212608	0	
-0.097188	0.0463958	0	
-0.108804	0.0650397	0	
-0.0749495	0.066343	0	
-0.0101837	0.0500866	0	
0.0689253	0.0225902	0	
0.181188	-0.00635796	0	
0.344476	-0.0319899	0	
0.531183	-0.0566697	0	
0.711537	-0.0783441	0	
0.850029	-0.0932909	0	
0.922915	-0.0996098	0	
0.923009	-0.0970715	0	
0.850143	-0.0861156	0	
0.70786	-0.0677237	0	
0.510137	-0.0444021	0	
0.293395	-0.0214151	0	
0.110782	-0.00537773	0	
0	0	0	
0	0	0	
-0.0181234	0.00721161	0	
-0.0773104	0.0313847	0	
-0.123191	0.0616671	0	
-0.118337	0.0796651	0	
-0.0647765	0.0770312	0	
0.0145364	0.0571886	0	
0.100216	0.0270304	0	
0.210049	-0.0052758	0	
0.371068	-0.0343684	0	
0.555986	-0.0613932	0	
0.730881	-0.0843576	0	
0.860906	-0.0997036	0	
0.924492	-0.1057	0	
0.915561	-0.102235	0	
0.834381	-0.0898561	0	
0.685427	-0.0697648	0	
0.485156	-0.0449448	0	
0.272741	-0.0212112	0	
0.100073	-0.00520197	0	
0	0	0	
0	0	0	
-0.0371887	0.0108705	0	
-0.110744	0.0414504	0	
-0.149432	0.0733226	0	
-0.123437	0.087038	0	
-0.0504061	0.0793706	0	
0.0415022	0.0569106	0	
0.133166	0.0260243	0	
0.241855	-0.007536	0	
0.40029	-0.038959	0	
0.582434	-0.0678279	0	
0.7509	-0.091726	0	
0.871646	-0.107142	0	
0.925274	-0.112497	0	
0.906765	-0.107794	0	
0.816866	-0.0937054	0	
0.661203	-0.0716983	0	
0.458992	-0.0453059	0	
0.251861	-0.0208888	0	
0.0896265	-0.00499643	0	
0	0	0	
0	0	0	
-0.0624083	0.0146876	0	
-0.147516	0.0492133	0	
-0.171494	0.0783045	0	
-0.122354	0.0852958	0	
-0.0325068	0.0729543	0	
0.0690981	0.049344	0	
0.16574	0.0194278	0	
0.274923	-0.0136309	0	
0.431384	-0.046216	0	
0.610063	-0.0763074	0	
0.771195	-0.100668	0	
0.881877	-0.115728	0	
0.924908	-0.120043	0	
0.896291	-0.113733	0	
0.797318	-0.0976085	0	
0.635034	-0.0734594	0	
0.431669	-0.0454415	0	
0.230865	-0.0204326	0	
0.0795053	-0.00475959	0	
0	0	0	
0	0	0	
-0.0925665	0.0178611	0	
-0.183126	0.0527455	0	
-0.186202	0.0755701	0	
-0.115176	0.0753846	0	
-0.0124696	0.0596965	0	
0.0958849	0.0362295	0	
0.196546	0.00829304	0	
0.307943	-0.0232925	0	
0.463586	-0.0561971	0	
0.638337	-0.0869245	0	
0.791286	-0.111234	0	
0.891156	-0.125459	0	
0.922986	-0.128289	0	
0.883765	-0.119965	0	
0.775438	-0.101455	0	
0.606788	-0.0749481	0	
0.403255	-0.0452934	0	
0.209886	-0.0198249	0	
0.06978	-0.00449017	0	
0	0	0	
0	0	0	
-0.125236	0.019639	0	
-0.213461	0.0514084	0	
-0.192638	0.0663783	0	
-0.103281	0.0601102	0	
0.00834133	0.0425102	0	
0.121036	0.0199259	0	
0.225081	-0.00581374	0	
0.340295	-0.0358001	0	
0.496325	-0.068649	0	
0.666736	-0.0995514	0	
0.810664	-0.123311	0	
0.899003	-0.136203	0	
0.919064	-0.137082	0	
0.868793	-0.126318	0	
0.750933	-0.105076	0	
0.576374	-0.0760337	0	
0.373871	-0.0447944	0	
0.189086	-0.0190489	0	
0.0605258	-0.00418804	0	
0	0	0	
0	0	0	
-0.157436	0.0196972	0	
-0.236138	0.0459846	0	
-0.19172	0.053248	0	
-0.0883338	0.0425397	0	
0.029065	0.0240396	0	
0.144402	0.00251255	0	
0.251635	-0.0214475	0	
0.372021	-0.0503494	0	
0.529275	-0.0831595	0	
0.694799	-0.113902	0	
0.828822	-0.136642	0	
0.904931	-0.147713	0	
0.912691	-0.146177	0	
0.85098	-0.132552	0	
0.72354	-0.108255	0	
0.543774	-0.0765642	0	
0.343711	-0.0438776	0	
0.168661	-0.0180941	0	
0.0518204	-0.00385532	0	
0	0	0	
0	0	0	
-0.186534	0.0182287	0	
-0.250665	0.0380268	0	
-0.185129	0.0386863	0	
-0.0716052	0.0249811	0	
0.0493874	0.00608404	0	
0.166345	-0.0146255	0	
0.277032	-0.037624	0	
0.403599	-0.0662978	0	
0.562292	-0.099287	0	
0.722111	-0.129601	0	
0.845272	-0.150875	0	
0.908464	-0.159651	0	
0.903425	-0.155247	0	
0.829951	-0.13836	0	
0.693055	-0.110739	0	
0.50907	-0.0763823	0	
0.313049	-0.0424883	0	
0.14883	-0.0169613	0	
0.0437388	-0.00349733	0	
0	0	0	
0	0	0	
-0.210848	0.0157466	0	
-0.257778	0.0290853	0	
-0.174468	0.0244745	0	
-0.053822	0.00874903	0	
0.0693858	-0.0104312	0	
0.187554	-0.0308285	0	
0.302353	-0.0538792	0	
0.435645	-0.0832416	0	
0.59529	-0.116628	0	
0.74827	-0.146232	0	
0.859542	-0.165591	0	
0.909144	-0.171613	0	
0.890844	-0.163911	0	
0.805373	-0.1434	0	
0.659367	-0.112261	0	
0.472465	-0.0753455	0	
0.282239	-0.0405961	0	
0.129832	-0.0156654	0	
0.0363466	-0.00312287	0	
0	0	0	
0	0	0	
-0.22972	0.012807	0	
-0.258673	0.0202664	0	
-0.160921	0.0115457	0	
-0.0352785	-0.00566124	0	
0.0893831	-0.0252666	0	
0.208904	-0.0460196	0	
0.328689	-0.0701623	0	
0.468681	-0.100973	0	
0.628119	-0.134825	0	
0.772846	-0.163359	0	
0.871163	-0.180337	0	
0.906533	-0.183157	0	
0.874557	-0.171754	0	
0.77698	-0.147307	0	
0.622487	-0.112567	0	
0.434305	-0.0733465	0	
0.251709	-0.0382038	0	
0.111908	-0.014235	0	
0.0296932	-0.00274213	0	
0	0	0	
0	0	0	
-0.243217	0.00982383	0	
-0.254518	0.0121436	0	
-0.145217	0.000162605	0	
-0.0159855	-0.0183122	0	
0.109861	-0.0386521	0	
0.231336	-0.0605097	0	
0.356964	-0.0866646	0	
0.502975	-0.119382	0	
0.660487	-0.153533	0	
0.795357	-0.180531	0	
0.879671	-0.194638	0	
0.900214	-0.193821	0	
0.854217	-0.178348	0	
0.744594	-0.149728	0	