# vtk DataFile Version 4.1
vtk output
ASCII
DATASET UNSTRUCTURED_GRID

POINTS	117	float
0	0	0	
0	2.5	0	
0	5	0	
0	7.5	0	
0	10	0	
0	12.5	0	
0	15	0	
0	17.5	0	
0	20	0	
2.5	0	0	
2.5	2.5	0	
2.5	5	0	
2.5	7.5	0	
2.5	10	0	
2.5	12.5	0	
2.5	15	0	
2.5	17.5	0	
2.5	20	0	
5	0	0	
5	2.5	0	
5	5	0	
5	7.5	0	
5	10	0	
5	12.5	0	
5	15	0	
5	17.5	0	
5	20	0	
7.5	0	0	
7.5	2.5	0	
7.5	5	0	
7.5	7.5	0	
7.5	10	0	
7.5	12.5	0	
7.5	15	0	
7.5	17.5	0	
7.5	20	0	
10	0	0	
10	2.5	0	
10	5	0	
10	7.5	0	
10	10	0	
10	12.5	0	
10	15	0	
10	17.5	0	
10	20	0	
12.5	0	0	
12.5	2.5	0	
12.5	5	0	
12.5	7.5	0	
12.5	10	0	
12.5	12.5	0	
12.5	15	0	
12.5	17.5	0	
12.5	20	0	
15	0	0	
15	2.5	0	
15	5	0	
15	7.5	0	
15	10	0	
15	12.5	0	
15	15	0	
15	17.5	0	
15	20	0	
17.5	0	0	
17.5	2.5	0	
17.5	5	0	
17.5	7.5	0	
17.5	10	0	
17.5	12.5	0	
17.5	15	0	
17.5	17.5	0	
17.5	20	0	
20	0	0	
20	2.5	0	
20	5	0	
20	7.5	0	
20	10	0	
20	12.5	0	
20	15	0	
20	17.5	0	
20	20	0	
22.5	0	0	
22.5	2.5	0	
22.5	5	0	
22.5	7.5	0	
22.5	10	0	
22.5	12.5	0	
22.5	15	0	
22.5	17.5	0	
22.5	20	0	
25	0	0	
25	2.5	0	
25	5	0	
25	7.5	0	
25	10	0	
25	12.5	0	
25	15	0	
25	17.5	0	
25	20	0	
27.5	0	0	
27.5	2.5	0	
27.5	5	0	
27.5	7.5	0	
27.5	10	0	
27.5	12.5	0	
27.5	15	0	
27.5	17.5	0	
27.5	20	0	
30	0	0	
30	2.5	0	
30	5	0	
30	7.5	0	
30	10	0	
30	12.5	0	
30	15	0	
30	17.5	0	
30	20	0	

CELLS 48	192
3	0	20	2	
3	2	22	4	
3	4	22	6	
3	6	24	8	
3	0	18	20	
3	2	20	22	
3	22	24	6	
3	24	26	8	
3	18	38	20	
3	20	40	22	
3	22	40	24	
3	24	42	26	
3	18	36	38	
3	20	38	40	
3	40	42	24	
3	42	44	26	
3	36	56	38	
3	38	58	40	
3	40	58	42	
3	42	60	44	
3	36	54	56	
3	38	56	58	
3	58	60	42	
3	60	62	44	
3	54	74	56	
3	56	76	58	
3	58	76	60	
3	60	78	62	
3	54	72	74	
3	56	74	76	
3	76	78	60	
3	78	80	62	
3	72	92	74	
3	74	94	76	
3	76	94	78	
3	78	96	80	
3	72	90	92	
3	74	92	94	
3	94	96	78	
3	96	98	80	
3	90	110	92	
3	92	112	94	
3	94	112	96	
3	96	114	98	
3	90	108	110	
3	92	110	112	
3	112	114	96	
3	114	116	98	

CELL_TYPES	48
5
5
5
5
5
5
5
5
5
5
5
5
5
5
5
5
5
5
5
5
5
5
5
5
5
5
5
5
5
5
5
5
5
5
5
5
5
5
5
5
5
5
5
5
5
5
5
5

POINT_DATA	117
VECTORS u float
1.29238e-012	-1.16653e-012	0	
0.00438	-3.67413e-013	0	
0.0075	-2.82519e-013	0	
0.00938	-9.51966e-014	0	
0.01	1.29807e-018	0	
0.00938	9.51966e-014	0	
0.0075	2.82516e-013	0	
0.00438	3.67413e-013	0	
1.29213e-012	1.16761e-012	0	
-1.91164e-013	2.5152e-013	0	
-0.000377796	9.58915e-005	0	
-0.000645612	6.94887e-005	0	
-0.000807343	4.15929e-005	0	
-0.000857804	9.35007e-020	0	
-0.000807343	-4.15929e-005	0	
-0.000645612	-6.94887e-005	0	
-0.000377796	-9.58915e-005	0	
-1.91164e-013	-2.5152e-013	0	
-2.09276e-014	1.90528e-014	0	
-3.19875e-006	6.44259e-007	0	
0.000154933	-3.88528e-005	0	
-8.42713e-006	1.00684e-006	0	
0.000206705	-2.84119e-020	0	
-8.42713e-006	-1.00684e-006	0	
0.000154933	3.88528e-005	0	
-3.19875e-006	-6.44259e-007	0	
-2.09283e-014	-1.90516e-014	0	
-1.52758e-016	3.70433e-016	0	
1.42029e-007	9.73563e-008	0	
1.93366e-006	-7.00954e-007	0	
-6.6334e-007	1.27909e-006	0	
6.10304e-007	-1.91344e-021	0	
-6.6334e-007	-1.27909e-006	0	
1.93366e-006	7.00954e-007	0	
1.42029e-007	-9.73563e-008	0	
-1.52758e-016	-3.70433e-016	0	
1.14881e-016	-1.33137e-016	0	
7.93393e-008	-3.43376e-008	0	
-5.52195e-007	2.0378e-007	0	
5.92382e-008	-1.08882e-007	0	
-5.16386e-007	2.87109e-021	0	
5.92382e-008	1.08882e-007	0	
-5.52195e-007	-2.0378e-007	0	
7.93393e-008	3.43376e-008	0	
1.15597e-016	1.3335e-016	0	
4.41934e-018	-8.46456e-018	0	
1.59608e-009	-1.02025e-009	0	
2.67722e-008	-1.01072e-008	0	
2.81301e-008	-3.15232e-009	0	
3.14368e-008	2.45141e-023	0	
2.81301e-008	3.15232e-009	0	
2.67722e-008	1.01072e-008	0	
1.59608e-009	1.02025e-009	0	
4.41934e-018	8.46456e-018	0	
7.84067e-019	-7.80235e-019	0	
-5.49541e-011	8.71204e-011	0	
-6.20057e-009	2.36905e-009	0	
4.08435e-010	8.37098e-011	0	
-5.82126e-009	-6.07884e-024	0	
4.08435e-010	-8.37098e-011	0	
-6.20057e-009	-2.36905e-009	0	
-5.49541e-011	-8.71204e-011	0	
7.84738e-019	7.84505e-019	0	
-4.67375e-021	8.46843e-021	0	
-3.94024e-012	2.77462e-012	0	
-1.21942e-010	5.14073e-011	0	
3.39495e-011	-6.59595e-011	0	
-8.34154e-012	1.81671e-025	0	
3.39495e-011	6.59595e-011	0	
-1.21942e-010	-5.14073e-011	0	
-3.94024e-012	-2.77462e-012	0	
-4.67375e-021	-8.46843e-021	0	
-3.96023e-021	4.40339e-021	0	
-2.53025e-013	1.5182e-013	0	
2.9243e-011	-1.19368e-011	0	
-5.12708e-012	1.37317e-012	0	
1.60417e-011	-2.9091e-025	0	
-5.12708e-012	-1.37317e-012	0	
2.9243e-011	1.19368e-011	0	
-2.53025e-013	-1.5182e-013	0	
-3.98963e-021	-4.40621e-021	0	
-1.05016e-023	2.02224e-023	0	
-8.56191e-015	7.0578e-015	0	
-2.15962e-013	8.2105e-014	0	
-1.35567e-013	4.14014e-014	0	
-2.46475e-013	-5.64992e-028	0	
-1.35567e-013	-4.14014e-014	0	
-2.15962e-013	-8.2105e-014	0	
-8.56191e-015	-7.0578e-015	0	
-1.05016e-023	-2.02224e-023	0	
-5.0029e-024	5.23306e-024	0	
1.08423e-015	-1.19898e-015	0	
4.89065e-014	-1.92069e-014	0	
4.50145e-015	-3.96389e-015	0	
2.79982e-014	1.76828e-027	0	
4.50145e-015	3.96389e-015	0	
4.89065e-014	1.92069e-014	0	
1.08423e-015	1.19898e-015	0	
-5.95293e-024	-6.50212e-024	0	
3.8021e-027	-5.28145e-027	0	
8.43756e-018	-5.80636e-018	0	
2.03828e-015	-8.31707e-016	0	
-1.83571e-016	4.80431e-016	0	
6.21466e-016	2.95475e-030	0	
-1.83571e-016	-4.80431e-016	0	
2.03828e-015	8.31707e-016	0	
8.43756e-018	5.80636e-018	0	
3.8021e-027	5.28145e-027	0	
7.85328e-026	-4.56563e-026	0	
-8.54916e-019	5.45739e-019	0	
-5.07868e-016	2.08851e-016	0	
-9.3402e-018	4.68339e-018	0	
-8.59655e-017	6.10332e-031	0	
-9.3402e-018	-4.68339e-018	0	
-5.07868e-016	-2.08851e-016	0	
-8.54916e-019	-5.45739e-019	0	
7.92675e-026	4.56955e-026	0	
SCALARS p float
LOOKUP_TABLE default
-0.000237755
0
-0.00103183
0
-0.00104647
0
-0.00103183
0
-0.000237755
0
0
0
0
0
0
0
0
0
-8.37372e-007
0
-0.000124417
0
-0.000518233
0
-0.000124417
0
-8.37372e-007
0
0
0
0
0
0
0
0
0
1.77592e-008
0
1.40294e-007
0
4.90935e-007
0
1.40294e-007
0
1.77592e-008
0
0
0
0
0
0
0
0
0
-1.40615e-011
0
5.39996e-010
0
1.78058e-008
0
5.39996e-010
0
-1.40615e-011
0
0
0
0
0
0
0
0
0
-3.01036e-014
0
-6.66873e-013
0
-9.83478e-012
0
-6.66873e-013
0
-3.01036e-014
0
0
0
0
0
0
0
0
0
-3.31697e-019
0
-6.55794e-015
0
-6.29202e-014
0
-6.55794e-015
0
-3.31697e-019
0
0
0
0
0
0
0
0
0
4.04253e-027
0
1.76493e-024
0
2.60968e-024
0
1.76493e-024
0
4.04253e-027
