# vtk DataFile Version 4.1
vtk output
ASCII
DATASET UNSTRUCTURED_GRID

POINTS	5001	float
0	0	0	
0	0.05	0	
0	0.1	0	
0	0.15	0	
0	0.2	0	
0	0.25	0	
0	0.3	0	
0	0.35	0	
0	0.4	0	
0	0.45	0	
0	0.5	0	
0	0.55	0	
0	0.6	0	
0	0.65	0	
0	0.7	0	
0	0.75	0	
0	0.8	0	
0	0.85	0	
0	0.9	0	
0	0.95	0	
0	1	0	
0.05	0	0	
0.05	0.05	0	
0.05	0.1	0	
0.05	0.15	0	
0.05	0.2	0	
0.05	0.25	0	
0.05	0.3	0	
0.05	0.35	0	
0.05	0.4	0	
0.05	0.45	0	
0.05	0.5	0	
0.05	0.55	0	
0.05	0.6	0	
0.05	0.65	0	
0.05	0.7	0	
0.05	0.75	0	
0.05	0.8	0	
0.05	0.85	0	
0.05	0.9	0	
0.05	0.95	0	
0.05	1	0	
0.1	0	0	
0.1	0.05	0	
0.1	0.1	0	
0.1	0.15	0	
0.1	0.2	0	
0.1	0.25	0	
0.1	0.3	0	
0.1	0.35	0	
0.1	0.4	0	
0.1	0.45	0	
0.1	0.5	0	
0.1	0.55	0	
0.1	0.6	0	
0.1	0.65	0	
0.1	0.7	0	
0.1	0.75	0	
0.1	0.8	0	
0.1	0.85	0	
0.1	0.9	0	
0.1	0.95	0	
0.1	1	0	
0.15	0	0	
0.15	0.05	0	
0.15	0.1	0	
0.15	0.15	0	
0.15	0.2	0	
0.15	0.25	0	
0.15	0.3	0	
0.15	0.35	0	
0.15	0.4	0	
0.15	0.45	0	
0.15	0.5	0	
0.15	0.55	0	
0.15	0.6	0	
0.15	0.65	0	
0.15	0.7	0	
0.15	0.75	0	
0.15	0.8	0	
0.15	0.85	0	
0.15	0.9	0	
0.15	0.95	0	
0.15	1	0	
0.2	0	0	
0.2	0.05	0	
0.2	0.1	0	
0.2	0.15	0	
0.2	0.2	0	
0.2	0.25	0	
0.2	0.3	0	
0.2	0.35	0	
0.2	0.4	0	
0.2	0.45	0	
0.2	0.5	0	
0.2	0.55	0	
0.2	0.6	0	
0.2	0.65	0	
0.2	0.7	0	
0.2	0.75	0	
0.2	0.8	0	
0.2	0.85	0	
0.2	0.9	0	
0.2	0.95	0	
0.2	1	0	
0.25	0	0	
0.25	0.05	0	
0.25	0.1	0	
0.25	0.15	0	
0.25	0.2	0	
0.25	0.25	0	
0.25	0.3	0	
0.25	0.35	0	
0.25	0.4	0	
0.25	0.45	0	
0.25	0.5	0	
0.25	0.55	0	
0.25	0.6	0	
0.25	0.65	0	
0.25	0.7	0	
0.25	0.75	0	
0.25	0.8	0	
0.25	0.85	0	
0.25	0.9	0	
0.25	0.95	0	
0.25	1	0	
0.3	0	0	
0.3	0.05	0	
0.3	0.1	0	
0.3	0.15	0	
0.3	0.2	0	
0.3	0.25	0	
0.3	0.3	0	
0.3	0.35	0	
0.3	0.4	0	
0.3	0.45	0	
0.3	0.5	0	
0.3	0.55	0	
0.3	0.6	0	
0.3	0.65	0	
0.3	0.7	0	
0.3	0.75	0	
0.3	0.8	0	
0.3	0.85	0	
0.3	0.9	0	
0.3	0.95	0	
0.3	1	0	
0.35	0	0	
0.35	0.05	0	
0.35	0.1	0	
0.35	0.15	0	
0.35	0.2	0	
0.35	0.25	0	
0.35	0.3	0	
0.35	0.35	0	
0.35	0.4	0	
0.35	0.45	0	
0.35	0.5	0	
0.35	0.55	0	
0.35	0.6	0	
0.35	0.65	0	
0.35	0.7	0	
0.35	0.75	0	
0.35	0.8	0	
0.35	0.85	0	
0.35	0.9	0	
0.35	0.95	0	
0.35	1	0	
0.4	0	0	
0.4	0.05	0	
0.4	0.1	0	
0.4	0.15	0	
0.4	0.2	0	
0.4	0.25	0	
0.4	0.3	0	
0.4	0.35	0	
0.4	0.4	0	
0.4	0.45	0	
0.4	0.5	0	
0.4	0.55	0	
0.4	0.6	0	
0.4	0.65	0	
0.4	0.7	0	
0.4	0.75	0	
0.4	0.8	0	
0.4	0.85	0	
0.4	0.9	0	
0.4	0.95	0	
0.4	1	0	
0.45	0	0	
0.45	0.05	0	
0.45	0.1	0	
0.45	0.15	0	
0.45	0.2	0	
0.45	0.25	0	
0.45	0.3	0	
0.45	0.35	0	
0.45	0.4	0	
0.45	0.45	0	
0.45	0.5	0	
0.45	0.55	0	
0.45	0.6	0	
0.45	0.65	0	
0.45	0.7	0	
0.45	0.75	0	
0.45	0.8	0	
0.45	0.85	0	
0.45	0.9	0	
0.45	0.95	0	
0.45	1	0	
0.5	0	0	
0.5	0.05	0	
0.5	0.1	0	
0.5	0.15	0	
0.5	0.2	0	
0.5	0.25	0	
0.5	0.3	0	
0.5	0.35	0	
0.5	0.4	0	
0.5	0.45	0	
0.5	0.5	0	
0.5	0.55	0	
0.5	0.6	0	
0.5	0.65	0	
0.5	0.7	0	
0.5	0.75	0	
0.5	0.8	0	
0.5	0.85	0	
0.5	0.9	0	
0.5	0.95	0	
0.5	1	0	
0.55	0	0	
0.55	0.05	0	
0.55	0.1	0	
0.55	0.15	0	
0.55	0.2	0	
0.55	0.25	0	
0.55	0.3	0	
0.55	0.35	0	
0.55	0.4	0	
0.55	0.45	0	
0.55	0.5	0	
0.55	0.55	0	
0.55	0.6	0	
0.55	0.65	0	
0.55	0.7	0	
0.55	0.75	0	
0.55	0.8	0	
0.55	0.85	0	
0.55	0.9	0	
0.55	0.95	0	
0.55	1	0	
0.6	0	0	
0.6	0.05	0	
0.6	0.1	0	
0.6	0.15	0	
0.6	0.2	0	
0.6	0.25	0	
0.6	0.3	0	
0.6	0.35	0	
0.6	0.4	0	
0.6	0.45	0	
0.6	0.5	0	
0.6	0.55	0	
0.6	0.6	0	
0.6	0.65	0	
0.6	0.7	0	
0.6	0.75	0	
0.6	0.8	0	
0.6	0.85	0	
0.6	0.9	0	
0.6	0.95	0	
0.6	1	0	
0.65	0	0	
0.65	0.05	0	
0.65	0.1	0	
0.65	0.15	0	
0.65	0.2	0	
0.65	0.25	0	
0.65	0.3	0	
0.65	0.35	0	
0.65	0.4	0	
0.65	0.45	0	
0.65	0.5	0	
0.65	0.55	0	
0.65	0.6	0	
0.65	0.65	0	
0.65	0.7	0	
0.65	0.75	0	
0.65	0.8	0	
0.65	0.85	0	
0.65	0.9	0	
0.65	0.95	0	
0.65	1	0	
0.7	0	0	
0.7	0.05	0	
0.7	0.1	0	
0.7	0.15	0	
0.7	0.2	0	
0.7	0.25	0	
0.7	0.3	0	
0.7	0.35	0	
0.7	0.4	0	
0.7	0.45	0	
0.7	0.5	0	
0.7	0.55	0	
0.7	0.6	0	
0.7	0.65	0	
0.7	0.7	0	
0.7	0.75	0	
0.7	0.8	0	
0.7	0.85	0	
0.7	0.9	0	
0.7	0.95	0	
0.7	1	0	
0.75	0	0	
0.75	0.05	0	
0.75	0.1	0	
0.75	0.15	0	
0.75	0.2	0	
0.75	0.25	0	
0.75	0.3	0	
0.75	0.35	0	
0.75	0.4	0	
0.75	0.45	0	
0.75	0.5	0	
0.75	0.55	0	
0.75	0.6	0	
0.75	0.65	0	
0.75	0.7	0	
0.75	0.75	0	
0.75	0.8	0	
0.75	0.85	0	
0.75	0.9	0	
0.75	0.95	0	
0.75	1	0	
0.8	0	0	
0.8	0.05	0	
0.8	0.1	0	
0.8	0.15	0	
0.8	0.2	0	
0.8	0.25	0	
0.8	0.3	0	
0.8	0.35	0	
0.8	0.4	0	
0.8	0.45	0	
0.8	0.5	0	
0.8	0.55	0	
0.8	0.6	0	
0.8	0.65	0	
0.8	0.7	0	
0.8	0.75	0	
0.8	0.8	0	
0.8	0.85	0	
0.8	0.9	0	
0.8	0.95	0	
0.8	1	0	
0.85	0	0	
0.85	0.05	0	
0.85	0.1	0	
0.85	0.15	0	
0.85	0.2	0	
0.85	0.25	0	
0.85	0.3	0	
0.85	0.35	0	
0.85	0.4	0	
0.85	0.45	0	
0.85	0.5	0	
0.85	0.55	0	
0.85	0.6	0	
0.85	0.65	0	
0.85	0.7	0	
0.85	0.75	0	
0.85	0.8	0	
0.85	0.85	0	
0.85	0.9	0	
0.85	0.95	0	
0.85	1	0	
0.9	0	0	
0.9	0.05	0	
0.9	0.1	0	
0.9	0.15	0	
0.9	0.2	0	
0.9	0.25	0	
0.9	0.3	0	
0.9	0.35	0	
0.9	0.4	0	
0.9	0.45	0	
0.9	0.5	0	
0.9	0.55	0	
0.9	0.6	0	
0.9	0.65	0	
0.9	0.7	0	
0.9	0.75	0	
0.9	0.8	0	
0.9	0.85	0	
0.9	0.9	0	
0.9	0.95	0	
0.9	1	0	
0.95	0	0	
0.95	0.05	0	
0.95	0.1	0	
0.95	0.15	0	
0.95	0.2	0	
0.95	0.25	0	
0.95	0.3	0	
0.95	0.35	0	
0.95	0.4	0	
0.95	0.45	0	
0.95	0.5	0	
0.95	0.55	0	
0.95	0.6	0	
0.95	0.65	0	
0.95	0.7	0	
0.95	0.75	0	
0.95	0.8	0	
0.95	0.85	0	
0.95	0.9	0	
0.95	0.95	0	
0.95	1	0	
1	0	0	
1	0.05	0	
1	0.1	0	
1	0.15	0	
1	0.2	0	
1	0.25	0	
1	0.3	0	
1	0.35	0	
1	0.4	0	
1	0.45	0	
1	0.5	0	
1	0.55	0	
1	0.6	0	
1	0.65	0	
1	0.7	0	
1	0.75	0	
1	0.8	0	
1	0.85	0	
1	0.9	0	
1	0.95	0	
1	1	0	
1.05	0	0	
1.05	0.05	0	
1.05	0.1	0	
1.05	0.15	0	
1.05	0.2	0	
1.05	0.25	0	
1.05	0.3	0	
1.05	0.35	0	
1.05	0.4	0	
1.05	0.45	0	
1.05	0.5	0	
1.05	0.55	0	
1.05	0.6	0	
1.05	0.65	0	
1.05	0.7	0	
1.05	0.75	0	
1.05	0.8	0	
1.05	0.85	0	
1.05	0.9	0	
1.05	0.95	0	
1.05	1	0	
1.1	0	0	
1.1	0.05	0	
1.1	0.1	0	
1.1	0.15	0	
1.1	0.2	0	
1.1	0.25	0	
1.1	0.3	0	
1.1	0.35	0	
1.1	0.4	0	
1.1	0.45	0	
1.1	0.5	0	
1.1	0.55	0	
1.1	0.6	0	
1.1	0.65	0	
1.1	0.7	0	
1.1	0.75	0	
1.1	0.8	0	
1.1	0.85	0	
1.1	0.9	0	
1.1	0.95	0	
1.1	1	0	
1.15	0	0	
1.15	0.05	0	
1.15	0.1	0	
1.15	0.15	0	
1.15	0.2	0	
1.15	0.25	0	
1.15	0.3	0	
1.15	0.35	0	
1.15	0.4	0	
1.15	0.45	0	
1.15	0.5	0	
1.15	0.55	0	
1.15	0.6	0	
1.15	0.65	0	
1.15	0.7	0	
1.15	0.75	0	
1.15	0.8	0	
1.15	0.85	0	
1.15	0.9	0	
1.15	0.95	0	
1.15	1	0	
1.2	0	0	
1.2	0.05	0	
1.2	0.1	0	
1.2	0.15	0	
1.2	0.2	0	
1.2	0.25	0	
1.2	0.3	0	
1.2	0.35	0	
1.2	0.4	0	
1.2	0.45	0	
1.2	0.5	0	
1.2	0.55	0	
1.2	0.6	0	
1.2	0.65	0	
1.2	0.7	0	
1.2	0.75	0	
1.2	0.8	0	
1.2	0.85	0	
1.2	0.9	0	
1.2	0.95	0	
1.2	1	0	
1.25	0	0	
1.25	0.05	0	
1.25	0.1	0	
1.25	0.15	0	
1.25	0.2	0	
1.25	0.25	0	
1.25	0.3	0	
1.25	0.35	0	
1.25	0.4	0	
1.25	0.45	0	
1.25	0.5	0	
1.25	0.55	0	
1.25	0.6	0	
1.25	0.65	0	
1.25	0.7	0	
1.25	0.75	0	
1.25	0.8	0	
1.25	0.85	0	
1.25	0.9	0	
1.25	0.95	0	
1.25	1	0	
1.3	0	0	
1.3	0.05	0	
1.3	0.1	0	
1.3	0.15	0	
1.3	0.2	0	
1.3	0.25	0	
1.3	0.3	0	
1.3	0.35	0	
1.3	0.4	0	
1.3	0.45	0	
1.3	0.5	0	
1.3	0.55	0	
1.3	0.6	0	
1.3	0.65	0	
1.3	0.7	0	
1.3	0.75	0	
1.3	0.8	0	
1.3	0.85	0	
1.3	0.9	0	
1.3	0.95	0	
1.3	1	0	
1.35	0	0	
1.35	0.05	0	
1.35	0.1	0	
1.35	0.15	0	
1.35	0.2	0	
1.35	0.25	0	
1.35	0.3	0	
1.35	0.35	0	
1.35	0.4	0	
1.35	0.45	0	
1.35	0.5	0	
1.35	0.55	0	
1.35	0.6	0	
1.35	0.65	0	
1.35	0.7	0	
1.35	0.75	0	
1.35	0.8	0	
1.35	0.85	0	
1.35	0.9	0	
1.35	0.95	0	
1.35	1	0	
1.4	0	0	
1.4	0.05	0	
1.4	0.1	0	
1.4	0.15	0	
1.4	0.2	0	
1.4	0.25	0	
1.4	0.3	0	
1.4	0.35	0	
1.4	0.4	0	
1.4	0.45	0	
1.4	0.5	0	
1.4	0.55	0	
1.4	0.6	0	
1.4	0.65	0	
1.4	0.7	0	
1.4	0.75	0	
1.4	0.8	0	
1.4	0.85	0	
1.4	0.9	0	
1.4	0.95	0	
1.4	1	0	
1.45	0	0	
1.45	0.05	0	
1.45	0.1	0	
1.45	0.15	0	
1.45	0.2	0	
1.45	0.25	0	
1.45	0.3	0	
1.45	0.35	0	
1.45	0.4	0	
1.45	0.45	0	
1.45	0.5	0	
1.45	0.55	0	
1.45	0.6	0	
1.45	0.65	0	
1.45	0.7	0	
1.45	0.75	0	
1.45	0.8	0	
1.45	0.85	0	
1.45	0.9	0	
1.45	0.95	0	
1.45	1	0	
1.5	0	0	
1.5	0.05	0	
1.5	0.1	0	
1.5	0.15	0	
1.5	0.2	0	
1.5	0.25	0	
1.5	0.3	0	
1.5	0.35	0	
1.5	0.4	0	
1.5	0.45	0	
1.5	0.5	0	
1.5	0.55	0	
1.5	0.6	0	
1.5	0.65	0	
1.5	0.7	0	
1.5	0.75	0	
1.5	0.8	0	
1.5	0.85	0	
1.5	0.9	0	
1.5	0.95	0	
1.5	1	0	
1.55	0	0	
1.55	0.05	0	
1.55	0.1	0	
1.55	0.15	0	
1.55	0.2	0	
1.55	0.25	0	
1.55	0.3	0	
1.55	0.35	0	
1.55	0.4	0	
1.55	0.45	0	
1.55	0.5	0	
1.55	0.55	0	
1.55	0.6	0	
1.55	0.65	0	
1.55	0.7	0	
1.55	0.75	0	
1.55	0.8	0	
1.55	0.85	0	
1.55	0.9	0	
1.55	0.95	0	
1.55	1	0	
1.6	0	0	
1.6	0.05	0	
1.6	0.1	0	
1.6	0.15	0	
1.6	0.2	0	
1.6	0.25	0	
1.6	0.3	0	
1.6	0.35	0	
1.6	0.4	0	
1.6	0.45	0	
1.6	0.5	0	
1.6	0.55	0	
1.6	0.6	0	
1.6	0.65	0	
1.6	0.7	0	
1.6	0.75	0	
1.6	0.8	0	
1.6	0.85	0	
1.6	0.9	0	
1.6	0.95	0	
1.6	1	0	
1.65	0	0	
1.65	0.05	0	
1.65	0.1	0	
1.65	0.15	0	
1.65	0.2	0	
1.65	0.25	0	
1.65	0.3	0	
1.65	0.35	0	
1.65	0.4	0	
1.65	0.45	0	
1.65	0.5	0	
1.65	0.55	0	
1.65	0.6	0	
1.65	0.65	0	
1.65	0.7	0	
1.65	0.75	0	
1.65	0.8	0	
1.65	0.85	0	
1.65	0.9	0	
1.65	0.95	0	
1.65	1	0	
1.7	0	0	
1.7	0.05	0	
1.7	0.1	0	
1.7	0.15	0	
1.7	0.2	0	
1.7	0.25	0	
1.7	0.3	0	
1.7	0.35	0	
1.7	0.4	0	
1.7	0.45	0	
1.7	0.5	0	
1.7	0.55	0	
1.7	0.6	0	
1.7	0.65	0	
1.7	0.7	0	
1.7	0.75	0	
1.7	0.8	0	
1.7	0.85	0	
1.7	0.9	0	
1.7	0.95	0	
1.7	1	0	
1.75	0	0	
1.75	0.05	0	
1.75	0.1	0	
1.75	0.15	0	
1.75	0.2	0	
1.75	0.25	0	
1.75	0.3	0	
1.75	0.35	0	
1.75	0.4	0	
1.75	0.45	0	
1.75	0.5	0	
1.75	0.55	0	
1.75	0.6	0	
1.75	0.65	0	
1.75	0.7	0	
1.75	0.75	0	
1.75	0.8	0	
1.75	0.85	0	
1.75	0.9	0	
1.75	0.95	0	
1.75	1	0	
1.8	0	0	
1.8	0.05	0	
1.8	0.1	0	
1.8	0.15	0	
1.8	0.2	0	
1.8	0.25	0	
1.8	0.3	0	
1.8	0.35	0	
1.8	0.4	0	
1.8	0.45	0	
1.8	0.5	0	
1.8	0.55	0	
1.8	0.6	0	
1.8	0.65	0	
1.8	0.7	0	
1.8	0.75	0	
1.8	0.8	0	
1.8	0.85	0	
1.8	0.9	0	
1.8	0.95	0	
1.8	1	0	
1.85	0	0	
1.85	0.05	0	
1.85	0.1	0	
1.85	0.15	0	
1.85	0.2	0	
1.85	0.25	0	
1.85	0.3	0	
1.85	0.35	0	
1.85	0.4	0	
1.85	0.45	0	
1.85	0.5	0	
1.85	0.55	0	
1.85	0.6	0	
1.85	0.65	0	
1.85	0.7	0	
1.85	0.75	0	
1.85	0.8	0	
1.85	0.85	0	
1.85	0.9	0	
1.85	0.95	0	
1.85	1	0	
1.9	0	0	
1.9	0.05	0	
1.9	0.1	0	
1.9	0.15	0	
1.9	0.2	0	
1.9	0.25	0	
1.9	0.3	0	
1.9	0.35	0	
1.9	0.4	0	
1.9	0.45	0	
1.9	0.5	0	
1.9	0.55	0	
1.9	0.6	0	
1.9	0.65	0	
1.9	0.7	0	
1.9	0.75	0	
1.9	0.8	0	
1.9	0.85	0	
1.9	0.9	0	
1.9	0.95	0	
1.9	1	0	
1.95	0	0	
1.95	0.05	0	
1.95	0.1	0	
1.95	0.15	0	
1.95	0.2	0	
1.95	0.25	0	
1.95	0.3	0	
1.95	0.35	0	
1.95	0.4	0	
1.95	0.45	0	
1.95	0.5	0	
1.95	0.55	0	
1.95	0.6	0	
1.95	0.65	0	
1.95	0.7	0	
1.95	0.75	0	
1.95	0.8	0	
1.95	0.85	0	
1.95	0.9	0	
1.95	0.95	0	
1.95	1	0	
2	0	0	
2	0.05	0	
2	0.1	0	
2	0.15	0	
2	0.2	0	
2	0.25	0	
2	0.3	0	
2	0.35	0	
2	0.4	0	
2	0.45	0	
[...]
POINT_DATA	5001
VECTORS u float
0	0	0	
0	0	0	
0	0	0	
0	0	0	
0	0	0	
0	0	0	
0	0	0	
0	0	0	
0	0	0	
0	0	0	
0	0	0	
0.36	0	0	
0.64	0	0	
0.84	0	0	
0.96	0	0	
1	0	0	
0.96	0	0	
0.84	0	0	
0.64	0	0	
0.36	0	0	
0	0	0	
0	0	0	
-0.00355888	0.00354162	0	
-0.00456549	0.0104793	0	
-0.00434645	0.0181334	0	
-0.00385909	0.0251313	0	
-0.00268742	0.0304685	0	
-0.0020722	0.0338488	0	
0.00120875	0.0330984	0	
0.00313499	0.0269271	0	
0.0236133	0.00185441	0	
0.0855065	-0.0520259	0	
0.359595	-0.0910777	0	
0.62564	-0.0836321	0	
0.832947	-0.0648544	0	
0.952921	-0.0512766	0	
0.994337	-0.0389276	0	
0.954227	-0.0276664	0	
0.834798	-0.0169718	0	
0.635885	-0.00780823	0	
0.358206	-0.00182614	0	
0	0	0	
0	0	0	
-0.0101484	0.00396005	0	
-0.013224	0.0121349	0	
-0.0128186	0.0210557	0	
-0.0105208	0.0287065	0	
-0.00690879	0.0335604	0	
-0.00146309	0.0339123	0	
0.00707265	0.0276087	0	
0.0237665	0.0105221	0	
0.0600133	-0.0229975	0	
0.156506	-0.0778676	0	
0.364813	-0.12462	0	
0.614788	-0.129436	0	
0.813398	-0.11516	0	
0.936146	-0.0948057	0	
0.977509	-0.0738223	0	
0.938527	-0.0531868	0	
0.82023	-0.0336892	0	
0.624318	-0.0167106	0	
0.351844	-0.00456148	0	
0	0	0	
0	0	0	
-0.0163338	0.00298499	0	
-0.0214152	0.00942984	0	
-0.0204737	0.016344	0	
-0.0158184	0.0215718	0	
-0.00806603	0.023241	0	
0.00339894	0.0194278	0	
0.0210976	0.00775255	0	
0.0506239	-0.014785	0	
0.105396	-0.0516739	0	
0.211335	-0.100741	0	
0.394113	-0.142508	0	
0.61141	-0.157033	0	
0.795405	-0.147632	0	
0.913276	-0.126745	0	
0.953398	-0.101103	0	
0.914669	-0.0740583	0	
0.79814	-0.0476739	0	
0.606235	-0.0242961	0	
0.340916	-0.00700137	0	
0	0	0	
0	0	0	
-0.0204942	0.00159173	0	
-0.0269614	0.00517389	0	
-0.0251496	0.00868797	0	
-0.0176925	0.0102006	0	
-0.00531218	0.00790676	0	
0.0128418	-4.49556e-005	0	
0.0395625	-0.0156751	0	
0.0808225	-0.041054	0	
0.147918	-0.0772669	0	
0.258648	-0.120625	0	
0.422921	-0.15776	0	
0.613523	-0.173849	0	
0.780126	-0.168057	0	
0.888687	-0.147953	0	
0.924853	-0.120133	0	
0.885105	-0.0890186	0	
0.770203	-0.0578031	0	
0.582957	-0.0297101	0	
0.326385	-0.00862622	0	
0	0	0	
0	0	0	
-0.0222052	0.000244639	0	
-0.0290918	0.000772712	0	
-0.0260045	0.000525986	0	
-0.0155845	-0.0019603	0	
0.00144873	-0.00821295	0	
0.0260154	-0.0198057	0	
0.0609325	-0.0382841	0	
0.111676	-0.0648546	0	
0.187271	-0.0993251	0	
0.298873	-0.137577	0	
0.449565	-0.169589	0	
0.618257	-0.184722	0	
0.766596	-0.180242	0	
0.863663	-0.160685	0	
0.893782	-0.131798	0	
0.851859	-0.0982672	0	
0.738256	-0.063994	0	
0.556126	-0.032899	0	
0.309526	-0.00954332	0	
0	0	0	
0	0	0	
-0.0216061	-0.000922989	0	
-0.0277872	-0.00319938	0	
-0.022988	-0.00701651	0	
-0.0095699	-0.0132779	0	
0.0118415	-0.0231228	0	
0.0421651	-0.0377516	0	
0.0840123	-0.0582317	0	
0.142041	-0.0850822	0	
0.222994	-0.117344	0	
0.333505	-0.151	0	
0.472616	-0.178288	0	
0.622761	-0.19109	0	
0.753749	-0.186424	0	
0.838477	-0.166972	0	
0.861331	-0.137508	0	
0.816455	-0.102684	0	
0.703946	-0.066787	0	
0.527294	-0.03419	0	
0.291499	-0.00984176	0	
0	0	0	
0	0	0	
-0.0190214	-0.00188172	0	
-0.0233866	-0.00655215	0	
-0.0164367	-0.0134972	0	
-4.77624e-005	-0.0230668	0	
0.0253318	-0.0359719	0	
0.0605919	-0.0530162	0	
0.108012	-0.0748164	0	
0.171328	-0.101367	0	
0.255254	-0.131281	0	
0.363188	-0.160805	0	
0.491843	-0.183716	0	
0.625902	-0.193719	0	
0.740759	-0.188048	0	
0.813106	-0.168352	0	
0.828219	-0.138624	0	
0.78005	-0.103337	0	
0.668624	-0.0669387	0	
0.497766	-0.0340368	0	
0.27324	-0.00970727	0	
0	0	0	
0	0	0	
-0.014815	-0.00263975	0	
-0.0163708	-0.00925509	0	
-0.00686246	-0.0187913	0	
0.0124379	-0.0311013	0	
0.0413279	-0.0464766	0	
0.0806639	-0.0653328	0	
0.13235	-0.0878888	0	
0.199202	-0.113743	0	
0.284227	-0.141276	0	
0.388512	-0.167055	0	
0.507361	-0.185999	0	
0.627082	-0.193136	0	
0.727146	-0.186105	0	
0.787584	-0.16603	0	
0.794983	-0.13632	0	
0.743534	-0.101219	0	
0.633348	-0.0651885	0	
0.468537	-0.0328816	0	
0.255414	-0.00928003	0	
0	0	0	
0	0	0	
-0.00933899	-0.00321402	0	
-0.00725404	-0.011337	0	
0.0051632	-0.022913	0	
0.0272962	-0.0373744	0	
0.0592352	-0.0546288	0	
0.101817	-0.0747348	0	
0.156571	-0.09757	0	
0.225469	-0.12244	0	
0.310119	-0.147619	0	
0.409949	-0.170001	0	
0.519433	-0.185386	0	
0.626181	-0.189818	0	
0.712743	-0.18138	0	
0.762017	-0.160961	0	
0.762076	-0.131557	0	
0.707604	-0.0971686	0	
0.598909	-0.0621613	0	
0.440315	-0.0310883	0	
0.238459	-0.00868379	0	
0	0	0	
0	0	0	
-0.00291735	-0.00362294	0	
0.00346421	-0.0128477	0	
0.0190702	-0.0259366	0	
0.0439427	-0.041982	0	
0.0784907	-0.0605572	0	
0.123552	-0.0814059	0	
0.180315	-0.104122	0	
0.250012	-0.127799	0	
0.333134	-0.150684	0	
0.427925	-0.169992	0	
0.528411	-0.182226	0	
0.623304	-0.184234	0	
0.697586	-0.174525	0	
0.736592	-0.153914	0	
0.729888	-0.125105	0	
0.672798	-0.0918514	0	
0.565873	-0.0583448	0	
0.413566	-0.0289321	0	
0.222627	-0.00800099	0	
0	0	0	
0	0	0	
0.00415781	-0.00388485	0	
0.0153212	-0.0138448	0	
0.0343218	-0.0279627	0	
0.06183	-0.0450696	0	
0.0985817	-0.0644587	0	
0.145439	-0.0856066	0	
0.203299	-0.107876	0	
0.272774	-0.130216	0	
0.353482	-0.150898	0	
0.442837	-0.167439	0	
0.534676	-0.176924	0	
0.61869	-0.176845	0	
0.681841	-0.166101	0	
0.711535	-0.145512	0	
0.698756	-0.117568	0	
0.639518	-0.0857775	0	
0.534626	-0.0541008	0	
0.388573	-0.0266082	0	
0.208046	-0.00729006	0	
0	0	0	
0	0	0	
0.0116277	-0.00401815	0	
0.0279007	-0.0143892	0	
0.0504308	-0.0291049	0	
0.0804643	-0.0468067	0	
0.119057	-0.0665643	0	
0.167117	-0.0876343	0	
0.225309	-0.109199	0	
0.293744	-0.130111	0	
0.371375	-0.148704	0	
0.455059	-0.162775	0	
0.53862	-0.169896	0	
0.612643	-0.168089	0	
0.665738	-0.156589	0	
0.687081	-0.136257	0	
0.668953	-0.109414	0	
0.608048	-0.079327	0	
0.505406	-0.0496882	0	
0.365477	-0.0242494	0	
0.194752	-0.00658676	0	
0	0	0	
0	0	0	
0.0192673	-0.00404134	0	
0.0408371	-0.0145436	0	
0.0669676	-0.0294819	0	
0.0994129	-0.047374	0	
0.13953	-0.067119	0	
0.188294	-0.0877999	0	
0.246191	-0.108462	0	
0.312948	-0.127904	0	
0.38703	-0.14454	0	
0.464942	-0.156428	0	
0.540625	-0.161552	0	
0.605483	-0.158366	0	
0.649528	-0.146395	0	
0.663452	-0.126547	0	
0.64069	-0.100999	0	
0.578573	-0.0727767	0	
0.478337	-0.0452864	0	
0.344324	-0.0219424	0	
0.182726	-0.00591334	0	
0	0	0	
0	0	0	
0.0268858	-0.00397288	0	
0.0538172	-0.0143707	0	
0.0835628	-0.0292137	0	
0.118307	-0.0469538	0	
0.15968	-0.0663692	0	
0.208737	-0.0864124	0	
0.265844	-0.10603	0	
0.330445	-0.123997	0	
0.400666	-0.138824	0	
0.47282	-0.148803	0	
0.541051	-0.152268	0	
0.597523	-0.148034	0	
0.633455	-0.13586	0	
0.640835	-0.116696	0	
0.614116	-0.0925869	0	
0.551195	-0.0663224	0	
0.453459	-0.0410152	0	
0.325087	-0.0197408	0	
0.171913	-0.00528188	0	
0	0	0	
0	0	0	
0.034326	-0.00383078	0	
0.0665798	-0.013932	0	
0.0999072	-0.028418	0	
0.136839	-0.0457247	0	
0.179247	-0.0645544	0	
0.228272	-0.083768	0	
0.284212	-0.102246	0	
0.346317	-0.118766	0	
0.412498	-0.131938	0	
0.478999	-0.140267	0	
0.540229	-0.142383	0	
0.589052	-0.137396	0	
0.617736	-0.125256	0	
0.619382	-0.106942	0	
0.589323	-0.0843694	0	
0.525947	-0.0600984	0	
0.430747	-0.0369513	0	
0.307698	-0.0176757	0	
0.16224	-0.00469841	0	
0	0	0	
0	0	0	
0.0414632	-0.00363218	0	
0.0789141	-0.0132858	0	
0.11575	-0.0272065	0	
0.154765	-0.0438558	0	
0.198029	-0.0619	0	
0.246776	-0.0801429	0	
0.301275	-0.0974285	0	
0.360662	-0.112552	0	
0.422736	-0.124225	0	
0.483762	-0.131144	0	
0.538452	-0.132188	0	
0.580323	-0.126707	0	
0.602555	-0.114802	0	
0.599202	-0.0974629	0	
0.566353	-0.076481	0	
0.502812	-0.0541924	0	
0.41013	-0.0331403	0	
0.292058	-0.015763	0	
0.153622	-0.00416484	0	
0	0	0	
0	0	0	
0.048203	-0.00339281	0	
0.0906566	-0.0124863	0	
0.130894	-0.0256829	0	
0.171891	-0.0415038	0	
0.215875	-0.0586131	0	
0.264167	-0.0757883	0	
0.317044	-0.0918597	0	
0.373592	-0.105654	0	
0.431578	-0.115983	0	
0.487361	-0.12171	0	
0.53598	-0.121925	0	
0.571552	-0.11617	0	
0.588056	-0.104663	0	
0.580365	-0.0883875	0	
0.545207	-0.0690113	0	
0.48173	-0.0486579	0	
0.391509	-0.0296061	0	
0.278051	-0.0140081	0	
0.145971	-0.00368072	0	
0	0	0	
0	0	0	
0.0544789	-0.00312676	0	
0.101687	-0.011582	0	
0.145194	-0.0239407	0	
0.188077	-0.0388095	0	
0.232677	-0.0548791	0	
0.280399	-0.0709266	0	
0.33155	-0.0857886	0	
0.38522	-0.0983331	0	
0.439208	-0.107465	0	
0.49002	-0.112197	0	
0.533032	-0.111791	0	
0.562915	-0.105945	0	
0.574347	-0.0949605	0	
0.562902	-0.079802	0	
0.525851	-0.0620153	0	
0.462616	-0.0435227	0	
0.374764	-0.0263572	0	
0.265554	-0.0124101	0	
0.1392	-0.00324408	0	
0	0	0	
0	0	0	
0.0602489	-0.0028462	0	
0.111925	-0.0106155	0	
0.158546	-0.0220619	0	
0.203223	-0.0358967	0	
0.248369	-0.0508603	0	
0.295456	-0.0657511	0	
0.344841	-0.0794281	0	
0.395661	-0.0908071	0	
0.445796	-0.0988816	0	
0.491934	-0.102791	0	
0.529793	-0.101939	0	
0.554551	-0.0961489	0	
0.561502	-0.085778	0	
0.546819	-0.0717602	0	
0.508225	-0.0555216	0	
0.445363	-0.0387963	0	
0.359765	-0.0233915	0	
0.254442	-0.0109635	0	
0.133223	-0.00285214	0	
0	0	0	
0	0	0	
0.065492	-0.00256128	0	
0.121322	-0.00962276	0	
0.170887	-0.0201167	0	
0.217271	-0.0328714	0	
0.262914	-0.046695	0	
0.309343	-0.0604253	0	
0.356978	-0.0729563	0	
0.405028	-0.0832564	0	
0.451492	-0.0904006	0	
0.493269	-0.0936368	0	
0.526412	-0.0924872	0	
0.546566	-0.0868659	0	
0.549564	-0.0771691	0	
0.532091	-0.0642902	0	
0.49225	-0.0495391	0	
0.429853	-0.0344751	0	
0.346377	-0.0207002	0	
0.244591	-0.00966034	0	
0.127962	-0.00250172	0	
0	0	0	
0	0	0	
0.0702047	-0.0022802	0	
0.129859	-0.00863315	0	
0.182188	-0.0181631	0	
0.230191	-0.0298219	0	
0.276302	-0.0424985	0	
0.322085	-0.0550843	0	
0.368024	-0.0665188	0	
0.413425	-0.0758255	0	
0.456432	-0.0821544	0	
0.494166	-0.0848459	0	
0.52301	-0.0835163	0	
0.539036	-0.0781499	0	
0.538551	-0.0691622	0	
0.518679	-0.0574004	0	
0.477834	-0.0440623	0	
0.415961	-0.0305467	0	
0.334466	-0.0182697	0	
0.235882	-0.00849132	0	
0.123342	-0.00218945	0	
0	0	0	
0	0	0	
0.0743972	-0.00200928	0	
0.137542	-0.00766995	0	
0.192444	-0.0162477	0	
0.241983	-0.0268193	0	
0.288547	-0.0383638	0	
0.333719	-0.0498368	0	
0.37805	-0.060231	0	
0.420952	-0.0686267	0	
0.46073	-0.0742426	0	
0.494739	-0.0764972	0	
0.519679	-0.0750817	0	
0.532011	-0.0700309	0	
0.52846	-0.0617664	0	
0.506525	-0.0510841	0	
0.464879	-0.0390755	0	
0.40356	-0.0269923	0	
0.323899	-0.0160841	0	
0.228203	-0.00744631	0	
0.119293	-0.00191198	0	
0	0	0	
0	0	0	
0.0780905	-0.00175314	0	
0.144392	-0.00675074	0	
0.201677	-0.0144061	0	
0.252666	-0.0239192	0	
0.299677	-0.0343639	0	
0.344293	-0.0447673	0	
0.387124	-0.0541815	0	
0.427697	-0.0617444	0	
0.464487	-0.0667372	0	
0.495083	-0.0686442	0	
0.516489	-0.0672152	0	
0.525521	-0.0625203	0	
0.519273	-0.0549758	0	
0.495563	-0.045324	0	
0.453279	-0.0345561	0	
0.392527	-0.0237897	0	
0.314551	-0.0141256	0	
0.221448	-0.00651503	0	
0.115754	-0.00166607	0	
0	0	0	
0	0	0	
0.0813134	-0.00151495	0	
0.150448	-0.005888	0	
0.209921	-0.0126649	0	
0.262277	-0.0211632	0	
0.309736	-0.0305534	0	
0.353861	-0.0399392	0	
0.395317	-0.0484357	0	
0.433743	-0.0552387	0	
0.467787	-0.0596863	0	
0.495272	-0.0613185	0	
0.513488	-0.0599305	0	
0.519577	-0.0556144	0	
0.510955	-0.0487735	0	
0.485718	-0.0400953	0	
0.442929	-0.0304768	0	
0.382739	-0.0209143	0	
0.306304	-0.0123762	0	
0.215522	-0.00568736	0	
0.112666	-0.00144863	0	
0	0	0	
0	0	0	
0.0840997	-0.0012966	0	
0.155755	-0.00508989	0	
0.217228	-0.0110418	0	
0.270867	-0.0185803	0	
0.318774	-0.0269712	0	
0.362481	-0.0353972	0	
0.402694	-0.0430389	0	
0.439162	-0.0491492	0	
0.470702	-0.0531191	0	
0.495365	-0.054535	0	
0.51071	-0.0532266	0	
0.514176	-0.0492985	0	
0.503467	-0.0431349	0	
0.476915	-0.0353682	0	
0.433727	-0.0268081	0	
0.374082	-0.018341	0	
0.299047	-0.010818	0	
0.210334	-0.00495357	0	
0.109979	-0.00125676	0	
0	0	0	
0	0	0	
0.0864864	-0.00109898	0	
0.160369	-0.00436093	0	
0.223656	-0.00954797	0	
0.278492	-0.0161891	0	
0.326851	-0.0236426	0	
0.370215	-0.0311703	0	
0.40932	-0.0380194	0	
0.444018	-0.0434991	0	
0.473291	-0.0470488	0	
0.495404	-0.0482945	0	
0.508174	-0.0470918	0	
0.509306	-0.04355	0	
0.496762	-0.0380299	0	
0.469075	-0.0311101	0	
0.425572	-0.0235191	0	
0.366447	-0.0160446	0	
0.292676	-0.00943351	0	
0.205804	-0.00430446	0	
0.107646	-0.00108778	0	
0	0	0	
0	0	0	
0.0885116	-0.000922174	0	
0.164347	-0.0037027	0	
0.229269	-0.00818839	0	
0.285219	-0.0139994	0	
0.334031	-0.0205815	0	
0.377125	-0.0272746	0	
0.415255	-0.0333917	0	
0.448368	-0.0382975	0	
0.475601	-0.0414761	0	
0.495423	-0.0425875	0	
0.505887	-0.0415063	0	
0.504946	-0.0383407	0	
0.490786	-0.0334255	0	
0.462119	-0.027287	0	
0.418368	-0.0205791	0	
0.359731	-0.0140004	0	
0.287099	-0.00820625	0	
0.201856	-0.00373141	0	
0.105624	-0.000939236	0	
0	0	0	
0	0	0	
0.0902136	-0.000765643	0	
0.167748	-0.00311452	0	
0.234136	-0.00696362	0	
0.291117	-0.012014	0	
0.340379	-0.0177929	0	
0.383272	-0.0237153	0	
0.420557	-0.0291593	0	
0.452264	-0.0335429	0	
0.477672	-0.0363923	0	
0.495444	-0.0373967	0	
0.50385	-0.0364447	0	
0.501068	-0.0336389	0	
0.485488	-0.0292869	0	
0.455972	-0.0238649	0	
0.412024	-0.017958	0	
0.35384	-0.0121852	0	
0.282228	-0.00712064	0	
0.198426	-0.00322649	0	
0.103877	-0.000808877	0	
0	0	0	
0	0	0	
0.0916293	-0.00062842	0	
0.170631	-0.00259397	0	
0.238324	-0.00587062	0	
0.296254	-0.01023	0	
0.345961	-0.0152743	0	
0.388717	-0.0204895	0	
0.425281	-0.0253167	0	
0.455749	-0.0292255	0	
0.479537	-0.0317814	0	
0.495481	-0.0326992	0	
0.502056	-0.0318775	0	
0.497643	-0.029411	0	
0.480812	-0.025579	0	
0.45056	-0.0208103	0	
0.406456	-0.0156271	0	
0.348689	-0.0105768	0	
0.277985	-0.00616225	0	
0.195452	-0.0027824	0	
0.102371	-0.000694671	0	
0	0	0	
0	0	0	
0.0927939	-0.000509238	0	
0.173053	-0.00213742	0	
0.241902	-0.00490375	0	
0.3007	-0.00864058	0	
0.350844	-0.0130175	0	
0.39352	-0.0175876	0	
0.429475	-0.0218518	0	
0.458864	-0.0253291	0	
0.48122	-0.0276219	0	
0.495543	-0.0284682	0	
0.500493	-0.0277735	0	
0.494637	-0.0256226	0	
0.476706	-0.022267	0	
0.445814	-0.0180908	0	
0.401585	-0.0135589	0	
0.344196	-0.00915464	0	
0.274299	-0.00531779	0	
0.192881	-0.00239251	0	
0.101077	-0.00059478	0	
0	0	0	
0	0	0	
0.0937402	-0.000406648	0	
0.175069	-0.00174045	0	
0.244934	-0.00405551	0	
0.304524	-0.0072356	0	
0.355092	-0.0110107	0	
0.397738	-0.0149954	0	
0.433188	-0.0187474	0	
0.461643	-0.0218329	0	
0.482743	-0.0238891	0	
0.495635	-0.0246744	0	
0.499147	-0.0240999	0	
0.492016	-0.0222395	0	
0.473118	-0.0193174	0	
0.441668	-0.0156761	0	
0.397339	-0.0117281	0	
0.340291	-0.00789975	0	
0.271107	-0.00457511	0	
0.190665	-0.0020508	0	
0.099968	-0.000507558	0	
0	0	0	
0	0	0	
0.0944985	-0.000319113	0	
0.176729	-0.00139815	0	
0.247484	-0.00331725	0	
0.307789	-0.00600305	0	
0.358767	-0.00923864	0	
0.401426	-0.0126951	0	
0.436463	-0.015983	0	
0.464119	-0.0187131	0	
0.484123	-0.0205554	0	
0.495756	-0.0212874	0	
0.498001	-0.0208241	0	
0.489746	-0.0192281	0	
0.469997	-0.0166979	0	
0.438061	-0.0135372	0	
0.393649	-0.0101111	0	
0.336906	-0.00679469	0	
0.268351	-0.00392318	0	
0.18876	-0.00175186	0	
0.0990209	-0.000431528	0	
0	0	0	
0	0	0	
0.0950961	-0.000245079	0	
0.178081	-0.00110541	0	
0.249608	-0.00267967	0	
0.310559	-0.00492966	0	
0.361927	-0.00768472	0	
0.404634	-0.0106669	0	
0.439343	-0.0135359	0	
0.46632	-0.0159441	0	
0.485374	-0.0175926	0	
0.495906	-0.0182763	0	
0.497037	-0.0179137	0	
0.487792	-0.0165564	0	
0.467297	-0.0143782	0	
0.434936	-0.0116475	0	
0.390455	-0.00868614	0	
0.333983	-0.00582359	0	
0.265979	-0.00335201	0	
0.187129	-0.00149081	0	
0.0982152	-0.000365375	0	
0	0	0	
0	0	0	
0.0955575	-0.000183026	0	
0.179167	-0.000857108	0	
0.251361	-0.00213326	0	
0.312891	-0.00400154	0	
0.364629	-0.00633115	0	
0.407411	-0.00888969	0	
0.441864	-0.0113818	0	
0.468271	-0.0134991	0	
0.486508	-0.0149715	0	
0.496081	-0.0156104	0	
0.496236	-0.0153375	0	
0.486123	-0.0141936	0	
0.464972	-0.0123299	0	
0.43224	-0.00998205	0	
0.387701	-0.00743323	0	
0.331468	-0.004972	0	
0.263946	-0.00285261	0	
0.185738	-0.0012633	0	
0.0975325	-0.000307927	0	
0	0	0	
0	0	0	
0.0959046	-0.000131502	0	
0.180026	-0.000648281	0	
0.252792	-0.00166857	0	
0.314837	-0.00320475	0	
0.366923	-0.00515987	0	
0.409803	-0.0073419	0	
0.444064	-0.00949646	0	
0.469996	-0.0113513	0	
0.487534	-0.0126634	0	
0.496277	-0.01326	0	
0.495581	-0.0130654	0	
0.484708	-0.0121107	0	
0.462983	-0.0105264	0	
0.429925	-0.00851816	0	
0.385336	-0.00633424	0	
0.329311	-0.00422689	0	
0.262208	-0.00241687	0	
0.184555	-0.00106543	0	
0.0969568	-0.000258145	0	
0	0	0	
0	0	0	
0.0961565	-8.9154e-005	0	
0.180693	-0.0004742	0	
0.253946	-0.00127652	0	
0.316447	-0.00252564	0	
0.368858	-0.00415304	0	
0.411852	-0.00600211	0	
0.445973	-0.00785545	0	
0.471516	-0.00947405	0	
0.488462	-0.0106404	0	
0.496489	-0.0111963	0	
0.495053	-0.0110689	0	
0.483517	-0.0102808	0	
0.461289	-0.00894314	0	
0.427948	-0.00723489	0	
0.383314	-0.00537269	0	
0.327471	-0.00357648	0	
0.260731	-0.00203756	0	
0.183555	-0.000893726	0	
0.0964739	-0.000215104	0	
0	0	0	
0	0	0	
0.09633	-5.47342e-005	0	
0.181197	-0.000330456	0	
0.254863	-0.000948494	0	
0.317767	-0.0019511	0	
0.370479	-0.00329338	0	
0.413597	-0.0048495	0	
0.447624	-0.00643514	0	
0.472852	-0.00784175	0	
0.489299	-0.00887537	0	
0.496712	-0.00939182	0	
0.494637	-0.00932132	0	
0.482523	-0.0086786	0	
0.459857	-0.00755761	0	
0.426267	-0.00611315	0	
0.381594	-0.0045336	0	
0.325908	-0.00301016	0	
0.25948	-0.00170818	0	
0.182714	-0.000745104	0	
0.0960712	-0.000177987	0	
0	0	0	
0	0	0	
0.0964396	-2.71118e-005	0	
0.181567	-0.000212994	0	
0.255578	-0.000676457	0	
0.318835	-0.00146881	0	
0.371823	-0.00256448	0	
0.415074	-0.00386413	0	
0.449045	-0.00521288	0	
0.474021	-0.00642981	0	
0.490051	-0.0073428	0	
0.496943	-0.00782089	0	
0.494316	-0.00779752	0	
0.481702	-0.00728069	0	
0.458654	-0.00634901	0	
0.424847	-0.00513555	0	
0.380138	-0.00380346	0	
0.324586	-0.0025184	0	
0.258427	-0.00142293	0	
0.18201	-0.000616809	0	
0.0957378	-0.000146071	0	
0	0	0	
0	0	0	
0.0964977	-5.27252e-006	0	
0.181825	-0.000118131	0	
0.256124	-0.00045304	0	
0.319688	-0.00106733	0	
0.37293	-0.00195095	0	
0.416315	-0.00302725	0	
0.45026	-0.00416725	0	
0.47504	-0.00521501	0	
0.490726	-0.00601853	0	
0.497176	-0.00645932	0	
0.494077	-0.00647423	0	
0.481031	-0.00606558	0	
0.457651	-0.00529837	0	
0.423654	-0.00428629	0	
0.378913	-0.00317004	0	
0.323476	-0.00209265	0	
0.257545	-0.00117662	0	
0.181425	-0.000506398	0	
0.095464	-0.000118715	0	
0	0	0	
0	0	0	
0.0965149	1.16847e-005	0	
0.181991	-4.25588e-005	0	
0.256528	-0.000271544	0	
0.320358	-0.000736132	0	
0.373829	-0.00143858	0	
0.417349	-0.00232138	0	
0.451293	-0.00327825	0	
0.475924	-0.00417566	0	
0.491329	-0.00488005	0	
0.497408	-0.00528467	0	
0.493906	-0.00532994	0	
0.480489	-0.00501347	0	
0.456823	-0.00438835	0	
0.42266	-0.00355105	0	
0.377889	-0.00262234	0	
0.322549	-0.00172523	0	
0.256813	-0.00096463	0	
0.180943	-0.000411696	0	
0.0952413	-9.53514e-005	0	
0	0	0	
0	0	0	
0.0965002	2.45528e-005	0	
0.182084	1.66667e-005	0	
0.256814	-0.000125944	0	
0.320873	-0.000465679	0	
0.374553	-0.00101432	0	
0.418205	-0.00173039	0	
0.452167	-0.00252735	0	
0.476688	-0.00329163	0	
0.491866	-0.0039065	0	
0.497635	-0.0042762	0	
0.493793	-0.00434486	0	
0.480057	-0.00410629	0	
0.456144	-0.00360318	0	
0.421838	-0.00291687	0	
0.377039	-0.00215044	0	
0.32178	-0.00140928	0	
0.256208	-0.000782831	0	
0.180549	-0.000330775	0	
0.0950623	-7.54787e-005	0	
0	0	0	
0	0	0	
0.0964612	3.40242e-005	0	
0.182118	6.21441e-005	0	
0.257004	-1.08659e-005	0	
0.321259	-0.000247378	0	
0.375125	-0.000666348	0	
0.418905	-0.00123957	0	
0.452901	-0.00189755	0	
0.477344	-0.00254442	0	
0.492341	-0.00307869	0	
0.497856	-0.00341486	0	
0.493727	-0.00350087	0	
0.47972	-0.00332752	0	
0.455594	-0.00292858	0	
0.421164	-0.00237204	0	
0.37634	-0.00174545	0	
0.321149	-0.00113864	0	
0.255715	-0.000627545	0	
0.180231	-0.000261921	0	
0.0949205	-5.86532e-005	0	
0	0	0	
0	0	0	
0.096404	4.06989e-005	0	
0.182106	9.61492e-005	0	
0.257115	7.84426e-005	0	
0.321537	-7.3558e-005	0	
0.375569	-0.000384012	0	
0.419471	-0.000835589	0	
0.453512	-0.00137338	0	
0.477906	-0.00191713	0	
0.492762	-0.00237907	0	
0.498067	-0.00268326	0	
0.493698	-0.00278144	0	
0.479462	-0.00266218	0	
0.455155	-0.00235157	0	
0.420617	-0.001906	0	
0.375771	-0.00139936	0	
0.320635	-0.000907809	0	
0.255315	-0.000495494	0	
0.179977	-0.000203611	0	
0.0948101	-4.44818e-005	0	
0	0	0	
0	0	0	
0.096334	4.50935e-005	0	
0.182058	0.000120661	0	
0.257164	0.000146156	0	
0.321726	6.2579e-005	0	