# vtk DataFile Version 4.1
vtk output
ASCII
DATASET UNSTRUCTURED_GRID

POINTS	160	float
0.212132	-0.212132	0	
0.249441	-0.166671	0	
0.277164	-0.114805	0	
0.294236	-0.0585271	0	
0.3	0	0	
0.294236	0.0585271	0	
0.277164	0.114805	0	
0.249441	0.166671	0	
0.212132	0.212132	0	
0.166671	0.249441	0	
0.114805	0.277164	0	
0.0585271	0.294236	0	
1.84e-017	0.3	0	
-0.0585271	0.294236	0	
-0.114805	0.277164	0	
-0.166671	0.249441	0	
-0.212132	0.212132	0	
-0.249441	0.166671	0	
-0.277164	0.114805	0	
-0.294236	0.0585271	0	
-0.3	3.67e-017	0	
-0.294236	-0.0585271	0	
-0.277164	-0.114805	0	
-0.249441	-0.166671	0	
-0.212132	-0.212132	0	
-0.166671	-0.249441	0	
-0.114805	-0.277164	0	
-0.0585271	-0.294236	0	
-5.51e-017	-0.3	0	
0.0585271	-0.294236	0	
0.114805	-0.277164	0	
0.166671	-0.249441	0	
0.259613	-0.259613	0	
0.290768	-0.201033	0	
0.313918	-0.137104	0	
0.328174	-0.069491	0	
0.332988	0	0	
0.328174	0.069491	0	
0.313918	0.137104	0	
0.290768	0.201033	0	
0.259613	0.259613	0	
0.201033	0.290768	0	
0.137104	0.313918	0	
0.069491	0.328174	0	
1.53e-017	0.332988	0	
-0.069491	0.328174	0	
-0.137104	0.313918	0	
-0.201033	0.290768	0	
-0.259613	0.259613	0	
-0.290768	0.201033	0	
-0.313918	0.137104	0	
-0.328174	0.069491	0	
-0.332988	3.07e-017	0	
-0.328174	-0.069491	0	
-0.313918	-0.137104	0	
-0.290768	-0.201033	0	
-0.259613	-0.259613	0	
-0.201033	-0.290768	0	
-0.137104	-0.313918	0	
-0.069491	-0.328174	0	
-4.6e-017	-0.332988	0	
0.069491	-0.328174	0	
0.137104	-0.313918	0	
0.201033	-0.290768	0	
0.329043	-0.329043	0	
0.3512	-0.251279	0	
0.367663	-0.169711	0	
0.377802	-0.0855235	0	
0.381225	0	0	
0.377802	0.0855235	0	
0.367663	0.169711	0	
0.3512	0.251279	0	
0.329043	0.329043	0	
0.251279	0.3512	0	
0.169711	0.367663	0	
0.0855235	0.377802	0	
1.09e-017	0.381225	0	
-0.0855235	0.377802	0	
-0.169711	0.367663	0	
-0.251279	0.3512	0	
-0.329043	0.329043	0	
-0.3512	0.251279	0	
-0.367663	0.169711	0	
-0.377802	0.0855235	0	
-0.381225	2.18e-017	0	
-0.377802	-0.0855235	0	
-0.367663	-0.169711	0	
-0.3512	-0.251279	0	
-0.329043	-0.329043	0	
-0.251279	-0.3512	0	
-0.169711	-0.367663	0	
-0.0855235	-0.377802	0	
-3.27e-017	-0.381225	0	
0.0855235	-0.377802	0	
0.169711	-0.367663	0	
0.251279	-0.3512	0	
0.410181	-0.410181	0	
0.421822	-0.309998	0	
0.430472	-0.207817	0	
0.435799	-0.10426	0	
0.437597	0	0	
0.435799	0.10426	0	
0.430472	0.207817	0	
0.421822	0.309998	0	
0.410181	0.410181	0	
0.309998	0.421822	0	
0.207817	0.430472	0	
0.10426	0.435799	0	
5.73e-018	0.437597	0	
-0.10426	0.435799	0	
-0.207817	0.430472	0	
-0.309998	0.421822	0	
-0.410181	0.410181	0	
-0.421822	0.309998	0	
-0.430472	0.207817	0	
-0.435799	0.10426	0	
-0.437597	1.15e-017	0	
-0.435799	-0.10426	0	
-0.430472	-0.207817	0	
-0.421822	-0.309998	0	
-0.410181	-0.410181	0	
-0.309998	-0.421822	0	
-0.207817	-0.430472	0	
-0.10426	-0.435799	0	
-1.72e-017	-0.437597	0	
0.10426	-0.435799	0	
0.207817	-0.430472	0	
0.309998	-0.421822	0	
0.5	-0.5	0	
0.5	-0.375	0	
0.5	-0.25	0	
0.5	-0.125	0	
0.5	0	0	
0.5	0.125	0	
0.5	0.25	0	
0.5	0.375	0	
0.5	0.5	0	
0.375	0.5	0	
0.25	0.5	0	
0.125	0.5	0	
0	0.5	0	
-0.125	0.5	0	
-0.25	0.5	0	
-0.375	0.5	0	
-0.5	0.5	0	
-0.5	0.375	0	
-0.5	0.25	0	
-0.5	0.125	0	
-0.5	0	0	
-0.5	-0.125	0	
-0.5	-0.25	0	
-0.5	-0.375	0	
-0.5	-0.5	0	
-0.375	-0.5	0	
-0.25	-0.5	0	
-0.125	-0.5	0	
0	-0.5	0	
0.125	-0.5	0	
0.25	-0.5	0	
0.375	-0.5	0	

CELLS 128	640
4	0	32	33	1	
4	1	33	34	2	
4	2	34	35	3	
4	3	35	36	4	
4	4	36	37	5	
4	5	37	38	6	
4	6	38	39	7	
4	7	39	40	8	
4	8	40	41	9	
4	9	41	42	10	
4	10	42	43	11	
4	11	43	44	12	
4	12	44	45	13	
4	13	45	46	14	
4	14	46	47	15	
4	15	47	48	16	
4	16	48	49	17	
4	17	49	50	18	
4	18	50	51	19	
4	19	51	52	20	
4	20	52	53	21	
4	21	53	54	22	
4	22	54	55	23	
4	23	55	56	24	
4	24	56	57	25	
4	25	57	58	26	
4	26	58	59	27	
4	27	59	60	28	
4	28	60	61	29	
4	29	61	62	30	
4	30	62	63	31	
4	31	63	32	0	
4	32	64	65	33	
4	33	65	66	34	
4	34	66	67	35	
4	35	67	68	36	
4	36	68	69	37	
4	37	69	70	38	
4	38	70	71	39	
4	39	71	72	40	
4	40	72	73	41	
4	41	73	74	42	
4	42	74	75	43	
4	43	75	76	44	
4	44	76	77	45	
4	45	77	78	46	
4	46	78	79	47	
4	47	79	80	48	
4	48	80	81	49	
4	49	81	82	50	
4	50	82	83	51	
4	51	83	84	52	
4	52	84	85	53	
4	53	85	86	54	
4	54	86	87	55	
4	55	87	88	56	
4	56	88	89	57	
4	57	89	90	58	
4	58	90	91	59	
4	59	91	92	60	
4	60	92	93	61	
4	61	93	94	62	
4	62	94	95	63	
4	63	95	64	32	
4	64	96	97	65	
4	65	97	98	66	
4	66	98	99	67	
4	67	99	100	68	
4	68	100	101	69	
4	69	101	102	70	
4	70	102	103	71	
4	71	103	104	72	
4	72	104	105	73	
4	73	105	106	74	
4	74	106	107	75	
4	75	107	108	76	
4	76	108	109	77	
4	77	109	110	78	
4	78	110	111	79	
4	79	111	112	80	
4	80	112	113	81	
4	81	113	114	82	
4	82	114	115	83	
4	83	115	116	84	
4	84	116	117	85	
4	85	117	118	86	
4	86	118	119	87	
4	87	119	120	88	
4	88	120	121	89	
4	89	121	122	90	
4	90	122	123	91	
4	91	123	124	92	
4	92	124	125	93	
4	93	125	126	94	
4	94	126	127	95	
4	95	127	96	64	
4	96	128	129	97	
4	97	129	130	98	
4	98	130	131	99	
4	99	131	132	100	
4	100	132	133	101	
4	101	133	134	102	
4	102	134	135	103	
4	103	135	136	104	
4	104	136	137	105	
4	105	137	138	106	
4	106	138	139	107	
4	107	139	140	108	
4	108	140	141	109	
4	109	141	142	110	
4	110	142	143	111	
4	111	143	144	112	
4	112	144	145	113	
4	113	145	146	114	
4	114	146	147	115	
4	115	147	148	116	
4	116	148	149	117	
4	117	149	150	118	
4	118	150	151	119	
4	119	151	152	120	
4	120	152	153	121	
4	121	153	154	122	
4	122	154	155	123	
4	123	155	156	124	
4	124	156	157	125	
4	125	157	158	126	
4	126	158	159	127	
4	127	159	128	96	

CELL_TYPES	128
9
9
9
9
9
9
9
9
9
9
9
9
9
9
9
9
9
9
9
9
9
9
9
9
9
9
9
9
9
9
9
9
9
9
9
9
9
9
9
9
9
9
9
9
9
9
9
9
9
9
9
9
9
9
9
9
9
9
9
9
9
9
9
9
9
9
9
9
9
9
9
9
9
9
9
9
9
9
9
9
9
9
9
9
9
9
9
9
9
9
9
9
9
9
9
9
9
9
9
9
9
9
9
9
9
9
9
9
9
9
9
9
9
9
9
9
9
9
9
9
9
9
9
9
9
9
9
9

POINT_DATA	160
VECTORS chi0 float
-0.187626	0.0771448	0	
-0.208629	0.0646383	0	
-0.220136	0.0479405	0	
-0.224434	0.0257807	0	
-0.225215	4.87944e-015	0	
-0.224434	-0.0257807	0	
-0.220136	-0.0479405	0	
-0.208629	-0.0646383	0	
-0.187626	-0.0771448	0	
-0.15654	-0.0835007	0	
-0.11183	-0.0870587	0	
-0.0581788	-0.0890968	0	
-1.00633e-014	-0.0897193	0	
0.0581788	-0.0890968	0	
0.11183	-0.0870587	0	
0.15654	-0.0835007	0	
0.187626	-0.0771448	0	
0.208629	-0.0646383	0	
0.220136	-0.0479405	0	
0.224434	-0.0257807	0	
0.225215	-1.28724e-014	0	
0.224434	0.0257807	0	
0.220136	0.0479405	0	
0.208629	0.0646383	0	
0.187626	0.0771448	0	
0.15654	0.0835007	0	
0.11183	0.0870587	0	
0.0581788	0.0890968	0	
-2.04125e-014	0.0897193	0	
-0.0581788	0.0890968	0	
-0.11183	0.0870587	0	
-0.15654	0.0835007	0	
-0.110572	0.0756415	0	
-0.143508	0.0725597	0	
-0.168346	0.0567068	0	
-0.182028	0.0308078	0	
-0.18592	5.01963e-016	0	
-0.182028	-0.0308078	0	
-0.168346	-0.0567068	0	
-0.143508	-0.0725597	0	
-0.110572	-0.0756415	0	
-0.0968093	-0.0728856	0	
-0.0732132	-0.0679864	0	
-0.040073	-0.0642186	0	
-1.05508e-016	-0.0629278	0	
0.040073	-0.0642186	0	
0.0732132	-0.0679864	0	
0.0968093	-0.0728856	0	
0.110572	-0.0756415	0	
0.143508	-0.0725597	0	
0.168346	-0.0567068	0	
0.182028	-0.0308078	0	
0.18592	5.51301e-016	0	
0.182028	0.0308078	0	
0.168346	0.0567068	0	
0.143508	0.0725597	0	
0.110572	0.0756415	0	
0.0968093	0.0728856	0	
0.0732132	0.0679864	0	
0.040073	0.0642186	0	
5.65404e-015	0.0629278	0	
-0.040073	0.0642186	0	
-0.0732132	0.0679864	0	
-0.0968093	0.0728856	0	
-0.0475925	0.0580298	0	
-0.0763515	0.0687074	0	
-0.104267	0.0615125	0	
-0.123642	0.0361255	0	
-0.130238	2.56221e-015	0	
-0.123642	-0.0361255	0	
-0.104267	-0.0615125	0	
-0.0763515	-0.0687074	0	
-0.0475925	-0.0580298	0	
-0.0488143	-0.0536517	0	
-0.0401723	-0.0470391	0	
-0.0229455	-0.0404296	0	
-4.79135e-016	-0.0375646	0	
0.0229455	-0.0404296	0	
0.0401723	-0.0470391	0	
0.0488143	-0.0536517	0	
0.0475925	-0.0580298	0	
0.0763515	-0.0687074	0	
0.104267	-0.0615125	0	
0.123642	-0.0361255	0	
0.130238	-2.16419e-015	0	
0.123642	0.0361255	0	
0.104267	0.0615125	0	
0.0763515	0.0687074	0	
0.0475925	0.0580298	0	
0.0488143	0.0536517	0	
0.0401723	0.0470391	0	
0.0229455	0.0404296	0	
3.78608e-015	0.0375646	0	
-0.0229455	0.0404296	0	
-0.0401723	0.0470391	0	
-0.0488143	0.0536517	0	
-0.013146	0.031834	0	
-0.0276608	0.0572838	0	
-0.0460975	0.0619406	0	
-0.0615954	0.0402831	0	
-0.06756	7.26564e-016	0	
-0.0615954	-0.0402831	0	
-0.0460975	-0.0619406	0	
-0.0276608	-0.0572838	0	
-0.013146	-0.031834	0	
-0.0213863	-0.0289498	0	
-0.0205686	-0.0250223	0	
-0.0121927	-0.0201522	0	
-4.52135e-015	-0.0176578	0	
0.0121927	-0.0201522	0	
0.0205686	-0.0250223	0	
0.0213863	-0.0289498	0	
0.013146	-0.031834	0	
0.0276608	-0.0572838	0	
0.0460975	-0.0619406	0	
0.0615954	-0.0402831	0	
0.06756	-2.65013e-015	0	
0.0615954	0.0402831	0	
0.0460975	0.0619406	0	
0.0276608	0.0572838	0	
0.013146	0.031834	0	
0.0213863	0.0289498	0	
0.0205686	0.0250223	0	
0.0121927	0.0201522	0	
-1.22154e-015	0.0176578	0	
-0.0121927	0.0201522	0	
-0.0205686	0.0250223	0	
-0.0213863	0.0289498	0	
-4.0534e-016	-3.23116e-016	0	
-5.83996e-015	0.0419548	0	
-4.16286e-015	0.0607478	0	
-1.03772e-014	0.044566	0	
-1.96605e-015	8.39869e-016	0	
6.70359e-015	-0.044566	0	
1.60892e-015	-0.0607478	0	
4.52724e-015	-0.0419548	0	
-4.0534e-016	-3.23116e-016	0	
-0.0107676	-1.07486e-015	0	
-0.0144053	1.07376e-014	0	
-0.00942207	1.00137e-014	0	
4.29806e-015	6.96979e-015	0	
0.00942207	1.09412e-015	0	
0.0144053	-6.37666e-015	0	
0.0107676	2.14221e-015	0	
-4.0534e-016	-3.23116e-016	0	
4.52724e-015	-0.0419548	0	
1.60892e-015	-0.0607478	0	
6.70359e-015	-0.044566	0	
-1.96605e-015	8.39869e-016	0	
-1.03772e-014	0.044566	0	
-4.16286e-015	0.0607478	0	
-5.83996e-015	0.0419548	0	
-4.0534e-016	-3.23116e-016	0	
0.0107676	2.14221e-015	0	
0.0144053	-6.37666e-015	0	
0.00942207	1.09412e-015	0	
4.29806e-015	6.96979e-015	0	
-0.00942207	1.00137e-014	0	
-0.0144053	1.07376e-014	0	
-0.0107676	-1.07486e-015	0	
VECTORS chi1 float
-0.0771448	0.187626	0	
-0.0835007	0.15654	0	
-0.0870587	0.11183	0	
-0.0890968	0.0581788	0	
-0.0897193	-2.51397e-015	0	
-0.0890968	-0.0581788	0	
-0.0870587	-0.11183	0	
-0.0835007	-0.15654	0	
-0.0771448	-0.187626	0	
-0.0646383	-0.208629	0	
-0.0479405	-0.220136	0	
-0.0257807	-0.224434	0	
1.78931e-014	-0.225215	0	
0.0257807	-0.224434	0	
0.0479405	-0.220136	0	
0.0646383	-0.208629	0	
0.0771448	-0.187626	0	
0.0835007	-0.15654	0	
0.0870587	-0.11183	0	
0.0890968	-0.0581788	0	
0.0897193	1.91656e-014	0	
0.0890968	0.0581788	0	
0.0870587	0.11183	0	
0.0835007	0.15654	0	
0.0771448	0.187626	0	
0.0646383	0.208629	0	
0.0479405	0.220136	0	
0.0257807	0.224434	0	
-3.78602e-014	0.225215	0	
-0.0257807	0.224434	0	
-0.0479405	0.220136	0	
-0.0646383	0.208629	0	
-0.0756415	0.110572	0	
-0.0728856	0.0968093	0	
-0.0679864	0.0732132	0	
-0.0642186	0.040073	0	
-0.0629278	1.01734e-015	0	
-0.0642186	-0.040073	0	
-0.0679864	-0.0732132	0	
-0.0728856	-0.0968093	0	
-0.0756415	-0.110572	0	
-0.0725597	-0.143508	0	
-0.0567068	-0.168346	0	
-0.0308078	-0.182028	0	
-4.55855e-015	-0.18592	0	
0.0308078	-0.182028	0	
0.0567068	-0.168346	0	
0.0725597	-0.143508	0	
0.0756415	-0.110572	0	
0.0728856	-0.0968093	0	
0.0679864	-0.0732132	0	
0.0642186	-0.040073	0	
0.0629278	-4.74875e-015	0	
0.0642186	0.040073	0	
0.0679864	0.0732132	0	
0.0728856	0.0968093	0	
0.0756415	0.110572	0	
0.0725597	0.143508	0	
0.0567068	0.168346	0	
0.0308078	0.182028	0	
8.60683e-015	0.18592	0	
-0.0308078	0.182028	0	
-0.0567068	0.168346	0	
-0.0725597	0.143508	0	
-0.0580298	0.0475925	0	
-0.0536517	0.0488143	0	
-0.0470391	0.0401723	0	
-0.0404296	0.0229455	0	
-0.0375646	-7.24095e-016	0	
-0.0404296	-0.0229455	0	
-0.0470391	-0.0401723	0	
-0.0536517	-0.0488143	0	
-0.0580298	-0.0475925	0	
-0.0687074	-0.0763515	0	
-0.0615125	-0.104267	0	
-0.0361255	-0.123642	0	
8.42591e-016	-0.130238	0	
0.0361255	-0.123642	0	
0.0615125	-0.104267	0	
0.0687074	-0.0763515	0	
0.0580298	-0.0475925	0	
0.0536517	-0.0488143	0	
0.0470391	-0.0401723	0	
0.0404296	-0.0229455	0	
0.0375646	-2.08022e-015	0	
0.0404296	0.0229455	0	
0.0470391	0.0401723	0	
0.0536517	0.0488143	0	
0.0580298	0.0475925	0	
0.0687074	0.0763515	0	
0.0615125	0.104267	0	
0.0361255	0.123642	0	
1.9227e-015	0.130238	0	
-0.0361255	0.123642	0	
-0.0615125	0.104267	0	
-0.0687074	0.0763515	0	
-0.031834	0.013146	0	
-0.0289498	0.0213863	0	
-0.0250223	0.0205686	0	
-0.0201522	0.0121927	0	
-0.0176578	1.50999e-015	0	
-0.0201522	-0.0121927	0	
-0.0250223	-0.0205686	0	
-0.0289498	-0.0213863	0	
-0.031834	-0.013146	0	
-0.0572838	-0.0276608	0	
-0.0619406	-0.0460975	0	
-0.0402831	-0.0615954	0	
-2.04992e-015	-0.06756	0	
0.0402831	-0.0615954	0	
0.0619406	-0.0460975	0	
0.0572838	-0.0276608	0	
0.031834	-0.013146	0	
0.0289498	-0.0213863	0	
0.0250223	-0.0205686	0	
0.0201522	-0.0121927	0	
0.0176578	5.35453e-016	0	
0.0201522	0.0121927	0	
0.0250223	0.0205686	0	
0.0289498	0.0213863	0	
0.031834	0.013146	0	
0.0572838	0.0276608	0	
0.0619406	0.0460975	0	
0.0402831	0.0615954	0	
-1.08349e-015	0.06756	0	
-0.0402831	0.0615954	0	
-0.0619406	0.0460975	0	
-0.0572838	0.0276608	0	
-1.90018e-016	1.75952e-017	0	
-1.00265e-016	0.0107676	0	
9.79472e-015	0.0144053	0	
1.10617e-014	0.00942207	0	
2.56394e-015	-3.04651e-015	0	
-7.7091e-015	-0.00942207	0	
-7.94336e-015	-0.0144053	0	
-1.16199e-015	-0.0107676	0	
-1.90018e-016	1.75952e-017	0	
-0.0419548	5.67966e-015	0	
-0.0607478	2.09765e-014	0	
-0.044566	2.26946e-014	0	
3.20219e-015	-3.70464e-015	0	
0.044566	-2.76453e-014	0	
0.0607478	-2.44437e-014	0	
0.0419548	-3.94243e-015	0	
-1.90018e-016	1.75952e-017	0	
-1.16199e-015	-0.0107676	0	
-7.94336e-015	-0.0144053	0	
-7.7091e-015	-0.00942207	0	
2.56394e-015	-3.04651e-015	0	
1.10617e-014	0.00942207	0	
9.79472e-015	0.0144053	0	
-1.00265e-016	0.0107676	0	
-1.90018e-016	1.75952e-017	0	
0.0419548	-3.94243e-015	0	
0.0607478	-2.44437e-014	0	
0.044566	-2.76453e-014	0	
3.20219e-015	-3.70464e-015	0	
-0.044566	2.26946e-014	0	
-0.0607478	2.09765e-014	0	
-0.0419548	5.67966e-015	0	
VECTORS chi2 float
0.131158	-0.131158	0	
0.111739	-0.148777	0	
0.0838997	-0.163685	0	
0.0461375	-0.174127	0	
7.79394e-015	-0.177827	0	
-0.0461375	-0.174127	0	
-0.0838997	-0.163685	0	
-0.111739	-0.148777	0	
-0.131158	-0.131158	0	
-0.148777	-0.111739	0	
-0.163685	-0.0838997	0	
-0.174127	-0.0461375	0	
-0.177827	-2.49166e-014	0	
-0.174127	0.0461375	0	
-0.163685	0.0838997	0	
-0.148777	0.111739	0	
-0.131158	0.131158	0	
-0.111739	0.148777	0	
-0.0838997	0.163685	0	
-0.0461375	0.174127	0	
4.99819e-015	0.177827	0	
0.0461375	0.174127	0	
0.0838997	0.163685	0	
0.111739	0.148777	0	
0.131158	0.131158	0	
0.148777	0.111739	0	
0.163685	0.0838997	0	
0.174127	0.0461375	0	
0.177827	-1.47381e-017	0	
0.174127	-0.0461375	0	
0.163685	-0.0838997	0	
0.148777	-0.111739	0	
0.122118	-0.122118	0	
0.120091	-0.123852	0	
0.0993423	-0.125699	0	
0.0577022	-0.127989	0	
-4.64958e-015	-0.128939	0	
-0.0577022	-0.127989	0	
-0.0993423	-0.125699	0	
-0.120091	-0.123852	0	
-0.122118	-0.122118	0	
-0.123852	-0.120091	0	
-0.125699	-0.0993423	0	
-0.127989	-0.0577022	0	
-0.128939	2.10964e-014	0	
-0.127989	0.0577022	0	
-0.125699	0.0993423	0	
-0.123852	0.120091	0	
-0.122118	0.122118	0	
-0.120091	0.123852	0	
-0.0993423	0.125699	0	
-0.0577022	0.127989	0	
-3.1666e-015	0.128939	0	
0.0577022	0.127989	0	
0.0993423	0.125699	0	
0.120091	0.123852	0	
0.122118	0.122118	0	
0.123852	0.120091	0	
0.125699	0.0993423	0	
0.127989	0.0577022	0	
0.128939	1.12428e-016	0	
0.127989	-0.0577022	0	
0.125699	-0.0993423	0	
0.123852	-0.120091	0	
0.0938049	-0.0938049	0	
0.113332	-0.0889529	0	
0.106725	-0.0845165	0	
0.0670541	-0.0810978	0	
1.47032e-015	-0.0794679	0	
-0.0670541	-0.0810978	0	
-0.106725	-0.0845165	0	
-0.113332	-0.0889529	0	
-0.0938049	-0.0938049	0	
-0.0889529	-0.113332	0	
-0.0845165	-0.106725	0	
-0.0810978	-0.0670541	0	
-0.0794679	-1.04985e-014	0	
-0.0810978	0.0670541	0	
-0.0845165	0.106725	0	
-0.0889529	0.113332	0	
-0.0938049	0.0938049	0	
-0.113332	0.0889529	0	
-0.106725	0.0845165	0	
-0.0670541	0.0810978	0	
4.85725e-016	0.0794679	0	
0.0670541	0.0810978	0	
0.106725	0.0845165	0	
0.113332	0.0889529	0	
0.0938049	0.0938049	0	
0.0889529	0.113332	0	
0.0845165	0.106725	0	
0.0810978	0.0670541	0	
0.0794679	3.95546e-015	0	
0.0810978	-0.0670541	0	
0.0845165	-0.106725	0	
0.0889529	-0.113332	0	
0.0521792	-0.0521792	0	
0.0952926	-0.0476205	0	
0.107763	-0.0438857	0	
0.0745631	-0.0399659	0	
4.50649e-016	-0.0374674	0	
-0.0745631	-0.0399659	0	
-0.107763	-0.0438857	0	
-0.0952926	-0.0476205	0	
-0.0521792	-0.0521792	0	
-0.0476205	-0.0952926	0	
-0.0438857	-0.107763	0	
-0.0399659	-0.0745631	0	
-0.0374674	-2.46105e-016	0	
-0.0399659	0.0745631	0	
-0.0438857	0.107763	0	
-0.0476205	0.0952926	0	
-0.0521792	0.0521792	0	
-0.0952926	0.0476205	0	
-0.107763	0.0438857	0	
-0.0745631	0.0399659	0	
6.80678e-016	0.0374674	0	
0.0745631	0.0399659	0	
0.107763	0.0438857	0	
0.0952926	0.0476205	0	
0.0521792	0.0521792	0	
0.0476205	0.0952926	0	
0.0438857	0.107763	0	
0.0399659	0.0745631	0	
0.0374674	-7.3802e-015	0	
0.0399659	-0.0745631	0	
0.0438857	-0.107763	0	
0.0476205	-0.0952926	0	
-4.61101e-015	-2.66392e-015	0	
0.0690912	4.07013e-014	0	
0.106181	-3.75735e-014	0	
0.0841169	1.88031e-014	0	
-4.92451e-015	-6.83879e-015	0	
-0.0841169	4.08215e-015	0	
-0.106181	-5.11178e-015	0	
-0.0690912	5.38153e-015	0	
-4.61101e-015	-2.66392e-015	0	
5.89964e-014	-0.0690912	0	
-5.54565e-014	-0.106181	0	
2.73141e-014	-0.0841169	0	
-1.22878e-014	4.93219e-015	0	
1.39101e-014	0.0841169	0	
-2.19308e-014	0.106181	0	
2.39726e-014	0.0690912	0	
-4.61101e-015	-2.66392e-015	0	
-0.0690912	5.38153e-015	0	
-0.106181	-5.11178e-015	0	
-0.0841169	4.08215e-015	0	
-4.92451e-015	-6.83879e-015	0	
0.0841169	1.88031e-014	0	
0.106181	-3.75735e-014	0	
0.0690912	4.07013e-014	0	
-4.61101e-015	-2.66392e-015	0	
2.39726e-014	0.0690912	0	
-2.19308e-014	0.106181	0	
1.39101e-014	0.0841169	0	
-1.22878e-014	4.93219e-015	0	
2.73141e-014	-0.0841169	0	
-5.54565e-014	-0.106181	0	
5.89964e-014	-0.0690912	0	
