# vtk DataFile Version 4.1
vtk output
ASCII
DATASET UNSTRUCTURED_GRID

POINTS	160	float
0.212132	-0.212132	0	
0.249441	-0.166671	0	
0.277164	-0.114805	0	
0.294236	-0.0585271	0	
0.3	0	0	
0.294236	0.0585271	0	
0.277164	0.114805	0	
0.249441	0.166671	0	
0.212132	0.212132	0	
0.166671	0.249441	0	
0.114805	0.277164	0	
0.0585271	0.294236	0	
1.84e-017	0.3	0	
-0.0585271	0.294236	0	
-0.114805	0.277164	0	
-0.166671	0.249441	0	
-0.212132	0.212132	0	
-0.249441	0.166671	0	
-0.277164	0.114805	0	
-0.294236	0.0585271	0	
-0.3	3.67e-017	0	
-0.294236	-0.0585271	0	
-0.277164	-0.114805	0	
-0.249441	-0.166671	0	
-0.212132	-0.212132	0	
-0.166671	-0.249441	0	
-0.114805	-0.277164	0	
-0.0585271	-0.294236	0	
-5.51e-017	-0.3	0	
0.0585271	-0.294236	0	
0.114805	-0.277164	0	
0.166671	-0.249441	0	
0.259613	-0.259613	0	
0.290768	-0.201033	0	
0.313918	-0.137104	0	
0.328174	-0.069491	0	
0.332988	0	0	
0.328174	0.069491	0	
0.313918	0.137104	0	
0.290768	0.201033	0	
0.259613	0.259613	0	
0.201033	0.290768	0	
0.137104	0.313918	0	
0.069491	0.328174	0	
1.53e-017	0.332988	0	
-0.069491	0.328174	0	
-0.137104	0.313918	0	
-0.201033	0.290768	0	
-0.259613	0.259613	0	
-0.290768	0.201033	0	
-0.313918	0.137104	0	
-0.328174	0.069491	0	
-0.332988	3.07e-017	0	
-0.328174	-0.069491	0	
-0.313918	-0.137104	0	
-0.290768	-0.201033	0	
-0.259613	-0.259613	0	
-0.201033	-0.290768	0	
-0.137104	-0.313918	0	
-0.069491	-0.328174	0	
-4.6e-017	-0.332988	0	
0.069491	-0.328174	0	
0.137104	-0.313918	0	
0.201033	-0.290768	0	
0.329043	-0.329043	0	
0.3512	-0.251279	0	
0.367663	-0.169711	0	
0.377802	-0.0855235	0	
0.381225	0	0	
0.377802	0.0855235	0	
0.367663	0.169711	0	
0.3512	0.251279	0	
0.329043	0.329043	0	
0.251279	0.3512	0	
0.169711	0.367663	0	
0.0855235	0.377802	0	
1.09e-017	0.381225	0	
-0.0855235	0.377802	0	
-0.169711	0.367663	0	
-0.251279	0.3512	0	
-0.329043	0.329043	0	
-0.3512	0.251279	0	
-0.367663	0.169711	0	
-0.377802	0.0855235	0	
-0.381225	2.18e-017	0	
-0.377802	-0.0855235	0	
-0.367663	-0.169711	0	
-0.3512	-0.251279	0	
-0.329043	-0.329043	0	
-0.251279	-0.3512	0	
-0.169711	-0.367663	0	
-0.0855235	-0.377802	0	
-3.27e-017	-0.381225	0	
0.0855235	-0.377802	0	
0.169711	-0.367663	0	
0.251279	-0.3512	0	
0.410181	-0.410181	0	
0.421822	-0.309998	0	
0.430472	-0.207817	0	
0.435799	-0.10426	0	
0.437597	0	0	
0.435799	0.10426	0	
0.430472	0.207817	0	
0.421822	0.309998	0	
0.410181	0.410181	0	
0.309998	0.421822	0	
0.207817	0.430472	0	
0.10426	0.435799	0	
5.73e-018	0.437597	0	
-0.10426	0.435799	0	
-0.207817	0.430472	0	
-0.309998	0.421822	0	
-0.410181	0.410181	0	
-0.421822	0.309998	0	
-0.430472	0.207817	0	
-0.435799	0.10426	0	
-0.437597	1.15e-017	0	
-0.435799	-0.10426	0	
-0.430472	-0.207817	0	
-0.421822	-0.309998	0	
-0.410181	-0.410181	0	
-0.309998	-0.421822	0	
-0.207817	-0.430472	0	
-0.10426	-0.435799	0	
-1.72e-017	-0.437597	0	
0.10426	-0.435799	0	
0.207817	-0.430472	0	
0.309998	-0.421822	0	
0.5	-0.5	0	
0.5	-0.375	0	
0.5	-0.25	0	
0.5	-0.125	0	
0.5	0	0	
0.5	0.125	0	
0.5	0.25	0	
0.5	0.375	0	
0.5	0.5	0	
0.375	0.5	0	
0.25	0.5	0	
0.125	0.5	0	
0	0.5	0	
-0.125	0.5	0	
-0.25	0.5	0	
-0.375	0.5	0	
-0.5	0.5	0	
-0.5	0.375	0	
-0.5	0.25	0	
-0.5	0.125	0	
-0.5	0	0	
-0.5	-0.125	0	
-0.5	-0.25	0	
-0.5	-0.375	0	
-0.5	-0.5	0	
-0.375	-0.5	0	
-0.25	-0.5	0	
-0.125	-0.5	0	
0	-0.5	0	
0.125	-0.5	0	
0.25	-0.5	0	
0.375	-0.5	0	

CELLS 128	640
4	0	32	33	1	
4	1	33	34	2	
4	2	34	35	3	
4	3	35	36	4	
4	4	36	37	5	
4	5	37	38	6	
4	6	38	39	7	
4	7	39	40	8	
4	8	40	41	9	
4	9	41	42	10	
4	10	42	43	11	
4	11	43	44	12	
4	12	44	45	13	
4	13	45	46	14	
4	14	46	47	15	
4	15	47	48	16	
4	16	48	49	17	
4	17	49	50	18	
4	18	50	51	19	
4	19	51	52	20	
4	20	52	53	21	
4	21	53	54	22	
4	22	54	55	23	
4	23	55	56	24	
4	24	56	57	25	
4	25	57	58	26	
4	26	58	59	27	
4	27	59	60	28	
4	28	60	61	29	
4	29	61	62	30	
4	30	62	63	31	
4	31	63	32	0	
4	32	64	65	33	
4	33	65	66	34	
4	34	66	67	35	
4	35	67	68	36	
4	36	68	69	37	
4	37	69	70	38	
4	38	70	71	39	
4	39	71	72	40	
4	40	72	73	41	
4	41	73	74	42	
4	42	74	75	43	
4	43	75	76	44	
4	44	76	77	45	
4	45	77	78	46	
4	46	78	79	47	
4	47	79	80	48	
4	48	80	81	49	
4	49	81	82	50	
4	50	82	83	51	
4	51	83	84	52	
4	52	84	85	53	
4	53	85	86	54	
4	54	86	87	55	
4	55	87	88	56	
4	56	88	89	57	
4	57	89	90	58	
4	58	90	91	59	
4	59	91	92	60	
4	60	92	93	61	
4	61	93	94	62	
4	62	94	95	63	
4	63	95	64	32	
4	64	96	97	65	
4	65	97	98	66	
4	66	98	99	67	
4	67	99	100	68	
4	68	100	101	69	
4	69	101	102	70	
4	70	102	103	71	
4	71	103	104	72	
4	72	104	105	73	
4	73	105	106	74	
4	74	106	107	75	
4	75	107	108	76	
4	76	108	109	77	
4	77	109	110	78	
4	78	110	111	79	
4	79	111	112	80	
4	80	112	113	81	
4	81	113	114	82	
4	82	114	115	83	
4	83	115	116	84	
4	84	116	117	85	
4	85	117	118	86	
4	86	118	119	87	
4	87	119	120	88	
4	88	120	121	89	
4	89	121	122	90	
4	90	122	123	91	
4	91	123	124	92	
4	92	124	125	93	
4	93	125	126	94	
4	94	126	127	95	
4	95	127	96	64	
4	96	128	129	97	
4	97	129	130	98	
4	98	130	131	99	
4	99	131	132	100	
4	100	132	133	101	
4	101	133	134	102	
4	102	134	135	103	
4	103	135	136	104	
4	104	136	137	105	
4	105	137	138	106	
4	106	138	139	107	
4	107	139	140	108	
4	108	140	141	109	
4	109	141	142	110	
4	110	142	143	111	
4	111	143	144	112	
4	112	144	145	113	
4	113	145	146	114	
4	114	146	147	115	
4	115	147	148	116	
4	116	148	149	117	
4	117	149	150	118	
4	118	150	151	119	
4	119	151	152	120	
4	120	152	153	121	
4	121	153	154	122	
4	122	154	155	123	
4	123	155	156	124	
4	124	156	157	125	
4	125	157	158	126	
4	126	158	159	127	
4	127	159	128	96	

CELL_TYPES	128
9
9
9
9
9
9
9
9
9
9
9
9
9
9
9
9
9
9
9
9
9
9
9
9
9
9
9
9
9
9
9
9
9
9
9
9
9
9
9
9
9
9
9
9
9
9
9
9
9
9
9
9
9
9
9
9
9
9
9
9
9
9
9
9
9
9
9
9
9
9
9
9
9
9
9
9
9
9
9
9
9
9
9
9
9
9
9
9
9
9
9
9
9
9
9
9
9
9
9
9
9
9
9
9
9
9
9
9
9
9
9
9
9
9
9
9
9
9
9
9
9
9
9
9
9
9
9
9

POINT_DATA	160
VECTORS chi0 float
-0.187641	0.0771507	0	
-0.208645	0.064644	0	
-0.220153	0.0479454	0	
-0.224452	0.0257836	0	
-0.225233	1.58802e-007	0	
-0.224452	-0.0257833	0	
-0.220153	-0.0479451	0	
-0.208645	-0.0646438	0	
-0.18764	-0.0771505	0	
-0.156552	-0.0835062	0	
-0.111838	-0.087064	0	
-0.0581835	-0.0891019	0	
1.03552e-007	-0.0897243	0	
0.0581837	-0.0891019	0	
0.111838	-0.0870642	0	
0.156553	-0.0835064	0	
0.187641	-0.0771507	0	
0.208645	-0.064644	0	
0.220153	-0.0479454	0	
0.224452	-0.0257836	0	
0.225233	-1.58802e-007	0	
0.224452	0.0257833	0	
0.220153	0.0479451	0	
0.208645	0.0646438	0	
0.18764	0.0771505	0	
0.156552	0.0835062	0	
0.111838	0.087064	0	
0.0581835	0.0891019	0	
-1.03552e-007	0.0897243	0	
-0.0581837	0.0891019	0	
-0.111838	0.0870642	0	
-0.156553	0.0835064	0	
-0.110582	0.0756483	0	
-0.143521	0.0725665	0	
-0.16836	0.0567125	0	
-0.182044	0.030811	0	
-0.185935	1.346e-007	0	
-0.182044	-0.0308107	0	
-0.16836	-0.0567122	0	
-0.143521	-0.0725663	0	
-0.110582	-0.075648	0	
-0.0968179	-0.0728913	0	
-0.0732197	-0.067991	0	
-0.0400765	-0.0642225	0	
8.19155e-008	-0.0629313	0	
0.0400767	-0.0642225	0	
0.0732199	-0.0679912	0	
0.0968181	-0.0728915	0	
0.110582	-0.0756483	0	
0.143521	-0.0725665	0	
0.16836	-0.0567125	0	
0.182044	-0.030811	0	
0.185935	-1.346e-007	0	
0.182044	0.0308107	0	
0.16836	0.0567122	0	
0.143521	0.0725663	0	
0.110582	0.075648	0	
0.0968179	0.0728913	0	
0.0732197	0.067991	0	
0.0400765	0.0642225	0	
-8.19155e-008	0.0629313	0	
-0.0400767	0.0642225	0	
-0.0732199	0.0679912	0	
-0.0968181	0.0728915	0	
-0.047597	0.0580361	0	
-0.0763588	0.0687148	0	
-0.104277	0.0615192	0	
-0.123654	0.0361295	0	
-0.13025	9.50761e-008	0	
-0.123654	-0.0361293	0	
-0.104277	-0.061519	0	
-0.0763586	-0.0687147	0	
-0.0475969	-0.0580359	0	
-0.0488188	-0.0536567	0	
-0.0401759	-0.0470428	0	
-0.0229475	-0.0404321	0	
5.42783e-008	-0.0375666	0	
0.0229476	-0.0404322	0	
0.040176	-0.047043	0	
0.0488189	-0.0536569	0	
0.047597	-0.0580361	0	
0.0763588	-0.0687148	0	
0.104277	-0.0615192	0	
0.123654	-0.0361295	0	
0.13025	-9.50761e-008	0	
0.123654	0.0361293	0	
0.104277	0.061519	0	
0.0763586	0.0687147	0	
0.0475969	0.0580359	0	
0.0488188	0.0536567	0	
0.0401759	0.0470428	0	
0.0229475	0.0404321	0	
-5.42783e-008	0.0375666	0	
-0.0229476	0.0404322	0	
-0.040176	0.047043	0	
-0.0488189	0.0536569	0	
-0.0131471	0.0318378	0	
-0.0276636	0.0572907	0	
-0.0461021	0.0619479	0	
-0.0616013	0.0402878	0	
-0.0675663	4.88659e-008	0	
-0.0616012	-0.0402877	0	
-0.0461019	-0.0619478	0	
-0.0276634	-0.0572906	0	
-0.013147	-0.0318377	0	
-0.021388	-0.0289528	0	
-0.0205701	-0.0250245	0	
-0.0121936	-0.0201535	0	
2.6717e-008	-0.0176587	0	
0.0121936	-0.0201536	0	
0.0205702	-0.0250246	0	
0.0213881	-0.0289529	0	
0.0131471	-0.0318378	0	
0.0276636	-0.0572907	0	
0.0461021	-0.0619479	0	
0.0616013	-0.0402878	0	
0.0675663	-4.88659e-008	0	
0.0616012	0.0402877	0	
0.0461019	0.0619478	0	
0.0276634	0.0572906	0	
0.013147	0.0318377	0	
0.021388	0.0289528	0	
0.0205701	0.0250245	0	
0.0121936	0.0201535	0	
-2.6717e-008	0.0176587	0	
-0.0121936	0.0201536	0	
-0.0205702	0.0250246	0	
-0.0213881	0.0289529	0	
5.52417e-017	-7.19223e-017	0	
-6.19791e-008	0.0419599	0	
-9.49748e-008	0.0607552	0	
-7.53124e-008	0.0445714	0	
-4.15394e-016	-1.07634e-016	0	
7.53124e-008	-0.0445714	0	
9.49748e-008	-0.0607552	0	
6.19791e-008	-0.0419599	0	
5.52417e-017	-7.19223e-017	0	
-0.0107683	6.05867e-008	0	
-0.0144062	8.97394e-008	0	
-0.00942258	6.84324e-008	0	
7.43035e-017	-2.44242e-016	0	
0.00942258	-6.84324e-008	0	
0.0144062	-8.97394e-008	0	
0.0107683	-6.05867e-008	0	
5.52417e-017	-7.19223e-017	0	
6.19791e-008	-0.0419599	0	
9.49748e-008	-0.0607552	0	
7.53124e-008	-0.0445714	0	
-4.15394e-016	-1.07634e-016	0	
-7.53124e-008	0.0445714	0	
-9.49748e-008	0.0607552	0	
-6.19791e-008	0.0419599	0	
5.52417e-017	-7.19223e-017	0	
0.0107683	-6.05867e-008	0	
0.0144062	-8.97394e-008	0	
0.00942258	-6.84324e-008	0	
7.43035e-017	-2.44242e-016	0	
-0.00942258	6.84324e-008	0	
-0.0144062	8.97394e-008	0	
-0.0107683	6.05867e-008	0	
VECTORS chi1 float
-0.0771507	0.187641	0	
-0.0835064	0.156553	0	
-0.0870642	0.111838	0	
-0.0891019	0.0581837	0	
-0.0897243	1.03553e-007	0	
-0.0891019	-0.0581835	0	
-0.087064	-0.111838	0	
-0.0835062	-0.156552	0	
-0.0771505	-0.18764	0	
-0.0646438	-0.208645	0	
-0.0479451	-0.220153	0	
-0.0257833	-0.224452	0	
1.58801e-007	-0.225233	0	
0.0257836	-0.224452	0	
0.0479454	-0.220153	0	
0.064644	-0.208645	0	
0.0771507	-0.187641	0	
0.0835064	-0.156553	0	
0.0870642	-0.111838	0	
0.0891019	-0.0581837	0	
0.0897243	-1.03553e-007	0	
0.0891019	0.0581835	0	
0.087064	0.111838	0	
0.0835062	0.156552	0	
0.0771505	0.18764	0	
0.0646438	0.208645	0	
0.0479451	0.220153	0	
0.0257833	0.224452	0	
-1.58801e-007	0.225233	0	
-0.0257836	0.224452	0	
-0.0479454	0.220153	0	
-0.064644	0.208645	0	
-0.0756483	0.110582	0	
-0.0728915	0.0968181	0	
-0.0679912	0.0732199	0	
-0.0642225	0.0400767	0	
-0.0629313	8.19162e-008	0	
-0.0642225	-0.0400765	0	
-0.067991	-0.0732197	0	
-0.0728913	-0.0968179	0	
-0.075648	-0.110582	0	
-0.0725663	-0.143521	0	
-0.0567122	-0.16836	0	
-0.0308107	-0.182044	0	
1.346e-007	-0.185935	0	
0.030811	-0.182044	0	
0.0567125	-0.16836	0	
0.0725665	-0.143521	0	
0.0756483	-0.110582	0	
0.0728915	-0.0968181	0	
0.0679912	-0.0732199	0	
0.0642225	-0.0400767	0	
0.0629313	-8.19162e-008	0	
0.0642225	0.0400765	0	
0.067991	0.0732197	0	
0.0728913	0.0968179	0	
0.075648	0.110582	0	
0.0725663	0.143521	0	
0.0567122	0.16836	0	
0.0308107	0.182044	0	
-1.346e-007	0.185935	0	
-0.030811	0.182044	0	
-0.0567125	0.16836	0	
-0.0725665	0.143521	0	
-0.0580361	0.047597	0	
-0.0536569	0.0488189	0	
-0.047043	0.040176	0	
-0.0404322	0.0229476	0	
-0.0375666	5.42786e-008	0	
-0.0404321	-0.0229475	0	
-0.0470428	-0.0401759	0	
-0.0536567	-0.0488188	0	
-0.0580359	-0.0475969	0	
-0.0687147	-0.0763586	0	
-0.061519	-0.104277	0	
-0.0361293	-0.123654	0	
9.50757e-008	-0.13025	0	
0.0361295	-0.123654	0	
0.0615192	-0.104277	0	
0.0687148	-0.0763588	0	
0.0580361	-0.047597	0	
0.0536569	-0.0488189	0	
0.047043	-0.040176	0	
0.0404322	-0.0229476	0	
0.0375666	-5.42786e-008	0	
0.0404321	0.0229475	0	
0.0470428	0.0401759	0	
0.0536567	0.0488188	0	
0.0580359	0.0475969	0	
0.0687147	0.0763586	0	
0.061519	0.104277	0	
0.0361293	0.123654	0	
-9.50757e-008	0.13025	0	
-0.0361295	0.123654	0	
-0.0615192	0.104277	0	
-0.0687148	0.0763588	0	
-0.0318378	0.0131471	0	
-0.0289529	0.0213881	0	
-0.0250246	0.0205702	0	
-0.0201536	0.0121936	0	
-0.0176587	2.67173e-008	0	
-0.0201535	-0.0121936	0	
-0.0250245	-0.0205701	0	
-0.0289528	-0.021388	0	
-0.0318377	-0.013147	0	
-0.0572906	-0.0276634	0	
-0.0619478	-0.0461019	0	
-0.0402877	-0.0616012	0	
4.88657e-008	-0.0675663	0	
0.0402878	-0.0616013	0	
0.0619479	-0.0461021	0	
0.0572907	-0.0276636	0	
0.0318378	-0.0131471	0	
0.0289529	-0.0213881	0	
0.0250246	-0.0205702	0	
0.0201536	-0.0121936	0	
0.0176587	-2.67173e-008	0	
0.0201535	0.0121936	0	
0.0250245	0.0205701	0	
0.0289528	0.021388	0	
0.0318377	0.013147	0	
0.0572906	0.0276634	0	
0.0619478	0.0461019	0	
0.0402877	0.0616012	0	
-4.88657e-008	0.0675663	0	
-0.0402878	0.0616013	0	
-0.0619479	0.0461021	0	
-0.0572907	0.0276636	0	
5.39002e-017	-2.26455e-016	0	
-6.05867e-008	0.0107683	0	
-8.97389e-008	0.0144062	0	
-6.84322e-008	0.00942258	0	
5.40115e-016	-2.33895e-016	0	
6.84322e-008	-0.00942258	0	
8.97389e-008	-0.0144062	0	
6.05867e-008	-0.0107683	0	
5.39002e-017	-2.26455e-016	0	
-0.0419599	6.19789e-008	0	
-0.0607552	9.49745e-008	0	
-0.0445714	7.53119e-008	0	
3.51814e-017	-4.98053e-016	0	
0.0445714	-7.53119e-008	0	
0.0607552	-9.49745e-008	0	
0.0419599	-6.19789e-008	0	
5.39002e-017	-2.26455e-016	0	
6.05867e-008	-0.0107683	0	
8.97389e-008	-0.0144062	0	
6.84322e-008	-0.00942258	0	
5.40115e-016	-2.33895e-016	0	
-6.84322e-008	0.00942258	0	
-8.97389e-008	0.0144062	0	
-6.05867e-008	0.0107683	0	
5.39002e-017	-2.26455e-016	0	
0.0419599	-6.19789e-008	0	
0.0607552	-9.49745e-008	0	
0.0445714	-7.53119e-008	0	
3.51814e-017	-4.98053e-016	0	
-0.0445714	7.53119e-008	0	
-0.0607552	9.49745e-008	0	
-0.0419599	6.19789e-008	0	
VECTORS chi2 float
0.131199	-0.131199	0	
0.111776	-0.148822	0	
0.0839288	-0.163734	0	
0.046154	-0.174179	0	
4.08302e-008	-0.17788	0	
-0.046154	-0.174179	0	
-0.0839287	-0.163734	0	
-0.111776	-0.148822	0	
-0.131199	-0.131199	0	
-0.148822	-0.111776	0	
-0.163734	-0.0839287	0	
-0.174179	-0.046154	0	
-0.17788	4.08304e-008	0	
-0.174179	0.046154	0	
-0.163734	0.0839288	0	
-0.148822	0.111776	0	
-0.131199	0.131199	0	
-0.111776	0.148822	0	
-0.0839288	0.163734	0	
-0.046154	0.174179	0	
-4.08302e-008	0.17788	0	
0.046154	0.174179	0	
0.0839287	0.163734	0	
0.111776	0.148822	0	
0.131199	0.131199	0	
0.148822	0.111776	0	
0.163734	0.0839287	0	
0.174179	0.046154	0	
0.17788	-4.08304e-008	0	
0.174179	-0.046154	0	
0.163734	-0.0839288	0	
0.148822	-0.111776	0	
0.122159	-0.122159	0	
0.120131	-0.123893	0	
0.099376	-0.12574	0	
0.0577223	-0.128031	0	
3.51526e-008	-0.128981	0	
-0.0577222	-0.128031	0	
-0.0993759	-0.12574	0	
-0.120131	-0.123893	0	
-0.122159	-0.122159	0	
-0.123893	-0.120131	0	
-0.12574	-0.0993759	0	
-0.128031	-0.0577222	0	
-0.128981	3.51524e-008	0	
-0.128031	0.0577223	0	
-0.12574	0.099376	0	
-0.123893	0.120131	0	
-0.122159	0.122159	0	
-0.120131	0.123893	0	
-0.099376	0.12574	0	
-0.0577223	0.128031	0	
-3.51526e-008	0.128981	0	
0.0577222	0.128031	0	
0.0993759	0.12574	0	
0.120131	0.123893	0	
0.122159	0.122159	0	
0.123893	0.120131	0	
0.12574	0.0993759	0	
0.128031	0.0577222	0	
0.128981	-3.51524e-008	0	
0.128031	-0.0577223	0	
0.12574	-0.099376	0	
0.123893	-0.120131	0	
0.0938379	-0.0938379	0	
0.113371	-0.0889842	0	
0.106762	-0.0845466	0	
0.0670777	-0.0811269	0	
2.51489e-008	-0.0794963	0	
-0.0670777	-0.0811268	0	
-0.106762	-0.0845466	0	
-0.113371	-0.0889842	0	
-0.0938378	-0.0938378	0	
-0.0889842	-0.113371	0	
-0.0845466	-0.106762	0	
-0.0811268	-0.0670777	0	
-0.0794963	2.5149e-008	0	
-0.0811269	0.0670777	0	
-0.0845466	0.106762	0	
-0.0889842	0.113371	0	
-0.0938379	0.0938379	0	
-0.113371	0.0889842	0	
-0.106762	0.0845466	0	
-0.0670777	0.0811269	0	
-2.51489e-008	0.0794963	0	
0.0670777	0.0811268	0	
0.106762	0.0845466	0	
0.113371	0.0889842	0	
0.0938378	0.0938378	0	
0.0889842	0.113371	0	
0.0845466	0.106762	0	
0.0811268	0.0670777	0	
0.0794963	-2.5149e-008	0	
0.0811269	-0.0670777	0	
0.0845466	-0.106762	0	
0.0889842	-0.113371	0	
0.0521981	-0.0521981	0	
0.0953269	-0.0476378	0	
0.107801	-0.0439018	0	
0.0745899	-0.0399809	0	
1.31035e-008	-0.0374815	0	
-0.0745898	-0.0399808	0	
-0.107801	-0.0439017	0	
-0.0953268	-0.0476377	0	
-0.0521981	-0.0521981	0	
-0.0476377	-0.0953268	0	
-0.0439017	-0.107801	0	
-0.0399808	-0.0745898	0	
-0.0374815	1.31035e-008	0	
-0.0399809	0.0745899	0	
-0.0439018	0.107801	0	
-0.0476378	0.0953269	0	
-0.0521981	0.0521981	0	
-0.0953269	0.0476378	0	
-0.107801	0.0439018	0	
-0.0745899	0.0399809	0	
-1.31035e-008	0.0374815	0	
0.0745898	0.0399808	0	
0.107801	0.0439017	0	
0.0953268	0.0476377	0	
0.0521981	0.0521981	0	
0.0476377	0.0953268	0	
0.0439017	0.107801	0	
0.0399808	0.0745898	0	
0.0374815	-1.31035e-008	0	
0.0399809	-0.0745899	0	
0.0439018	-0.107801	0	
0.0476378	-0.0953269	0	
6.18121e-016	-2.93998e-016	0	
0.0691163	-1.48857e-008	0	
0.106219	-2.19575e-008	0	
0.0841474	-1.61906e-008	0	
-1.72594e-015	-1.82884e-015	0	
-0.0841474	1.61906e-008	0	
-0.106219	2.19575e-008	0	
-0.0691163	1.48857e-008	0	
6.18121e-016	-2.93998e-016	0	
1.48857e-008	-0.0691163	0	
2.19575e-008	-0.106219	0	
1.61906e-008	-0.0841474	0	
1.98693e-015	-2.97073e-015	0	
-1.61906e-008	0.0841474	0	
-2.19575e-008	0.106219	0	
-1.48857e-008	0.0691163	0	
6.18121e-016	-2.93998e-016	0	
-0.0691163	1.48857e-008	0	
-0.106219	2.19575e-008	0	
-0.0841474	1.61906e-008	0	
-1.72594e-015	-1.82884e-015	0	
0.0841474	-1.61906e-008	0	
0.106219	-2.19575e-008	0	
0.0691163	-1.48857e-008	0	
6.18121e-016	-2.93998e-016	0	
-1.48857e-008	0.0691163	0	
-2.19575e-008	0.106219	0	
-1.61906e-008	0.0841474	0	
1.98693e-015	-2.97073e-015	0	
1.61906e-008	-0.0841474	0	
2.19575e-008	-0.106219	0	
1.48857e-008	-0.0691163	0	
