# vtk DataFile Version 4.1
vtk output
ASCII
DATASET UNSTRUCTURED_GRID

POINTS	160	float
0.212132	-0.212132	0	
0.249441	-0.166671	0	
0.277164	-0.114805	0	
0.294236	-0.0585271	0	
0.3	0	0	
0.294236	0.0585271	0	
0.277164	0.114805	0	
0.249441	0.166671	0	
0.212132	0.212132	0	
0.166671	0.249441	0	
0.114805	0.277164	0	
0.0585271	0.294236	0	
1.84e-017	0.3	0	
-0.0585271	0.294236	0	
-0.114805	0.277164	0	
-0.166671	0.249441	0	
-0.212132	0.212132	0	
-0.249441	0.166671	0	
-0.277164	0.114805	0	
-0.294236	0.0585271	0	
-0.3	3.67e-017	0	
-0.294236	-0.0585271	0	
-0.277164	-0.114805	0	
-0.249441	-0.166671	0	
-0.212132	-0.212132	0	
-0.166671	-0.249441	0	
-0.114805	-0.277164	0	
-0.0585271	-0.294236	0	
-5.51e-017	-0.3	0	
0.0585271	-0.294236	0	
0.114805	-0.277164	0	
0.166671	-0.249441	0	
0.284099	-0.284099	0	
0.312081	-0.218753	0	
0.332873	-0.148604	0	
0.345677	-0.0751453	0	
0.35	0	0	
0.345677	0.0751453	0	
0.332873	0.148604	0	
0.312081	0.218753	0	
0.284099	0.284099	0	
0.218753	0.312081	0	
0.148604	0.332873	0	
0.0751453	0.345677	0	
1.38e-017	0.35	0	
-0.0751453	0.345677	0	
-0.148604	0.332873	0	
-0.218753	0.312081	0	
-0.284099	0.284099	0	
-0.312081	0.218753	0	
-0.332873	0.148604	0	
-0.345677	0.0751453	0	
-0.35	2.76e-017	0	
-0.345677	-0.0751453	0	
-0.332873	-0.148604	0	
-0.312081	-0.218753	0	
-0.284099	-0.284099	0	
-0.218753	-0.312081	0	
-0.148604	-0.332873	0	
-0.0751453	-0.345677	0	
-4.13e-017	-0.35	0	
0.0751453	-0.345677	0	
0.148604	-0.332873	0	
0.218753	-0.312081	0	
0.356066	-0.356066	0	
0.37472	-0.270836	0	
0.388582	-0.182403	0	
0.397118	-0.0917635	0	
0.4	0	0	
0.397118	0.0917635	0	
0.388582	0.182403	0	
0.37472	0.270836	0	
0.356066	0.356066	0	
0.270836	0.37472	0	
0.182403	0.388582	0	
0.0917635	0.397118	0	
9.18e-018	0.4	0	
-0.0917635	0.397118	0	
-0.182403	0.388582	0	
-0.270836	0.37472	0	
-0.356066	0.356066	0	
-0.37472	0.270836	0	
-0.388582	0.182403	0	
-0.397118	0.0917635	0	
-0.4	1.84e-017	0	
-0.397118	-0.0917635	0	
-0.388582	-0.182403	0	
-0.37472	-0.270836	0	
-0.356066	-0.356066	0	
-0.270836	-0.37472	0	
-0.182403	-0.388582	0	
-0.0917635	-0.397118	0	
-2.76e-017	-0.4	0	
0.0917635	-0.397118	0	
0.182403	-0.388582	0	
0.270836	-0.37472	0	
0.428033	-0.428033	0	
0.43736	-0.322918	0	
0.444291	-0.216201	0	
0.448559	-0.108382	0	
0.45	0	0	
0.448559	0.108382	0	
0.444291	0.216201	0	
0.43736	0.322918	0	
0.428033	0.428033	0	
0.322918	0.43736	0	
0.216201	0.444291	0	
0.108382	0.448559	0	
4.59e-018	0.45	0	
-0.108382	0.448559	0	
-0.216201	0.444291	0	
-0.322918	0.43736	0	
-0.428033	0.428033	0	
-0.43736	0.322918	0	
-0.444291	0.216201	0	
-0.448559	0.108382	0	
-0.45	9.18e-018	0	
-0.448559	-0.108382	0	
-0.444291	-0.216201	0	
-0.43736	-0.322918	0	
-0.428033	-0.428033	0	
-0.322918	-0.43736	0	
-0.216201	-0.444291	0	
-0.108382	-0.448559	0	
-1.38e-017	-0.45	0	
0.108382	-0.448559	0	
0.216201	-0.444291	0	
0.322918	-0.43736	0	
0.5	-0.5	0	
0.5	-0.375	0	
0.5	-0.25	0	
0.5	-0.125	0	
0.5	0	0	
0.5	0.125	0	
0.5	0.25	0	
0.5	0.375	0	
0.5	0.5	0	
0.375	0.5	0	
0.25	0.5	0	
0.125	0.5	0	
0	0.5	0	
-0.125	0.5	0	
-0.25	0.5	0	
-0.375	0.5	0	
-0.5	0.5	0	
-0.5	0.375	0	
-0.5	0.25	0	
-0.5	0.125	0	
-0.5	0	0	
-0.5	-0.125	0	
-0.5	-0.25	0	
-0.5	-0.375	0	
-0.5	-0.5	0	
-0.375	-0.5	0	
-0.25	-0.5	0	
-0.125	-0.5	0	
0	-0.5	0	
0.125	-0.5	0	
0.25	-0.5	0	
0.375	-0.5	0	

CELLS 128	640
4	0	32	33	1	
4	1	33	34	2	
4	2	34	35	3	
4	3	35	36	4	
4	4	36	37	5	
4	5	37	38	6	
4	6	38	39	7	
4	7	39	40	8	
4	8	40	41	9	
4	9	41	42	10	
4	10	42	43	11	
4	11	43	44	12	
4	12	44	45	13	
4	13	45	46	14	
4	14	46	47	15	
4	15	47	48	16	
4	16	48	49	17	
4	17	49	50	18	
4	18	50	51	19	
4	19	51	52	20	
4	20	52	53	21	
4	21	53	54	22	
4	22	54	55	23	
4	23	55	56	24	
4	24	56	57	25	
4	25	57	58	26	
4	26	58	59	27	
4	27	59	60	28	
4	28	60	61	29	
4	29	61	62	30	
4	30	62	63	31	
4	31	63	32	0	
4	32	64	65	33	
4	33	65	66	34	
4	34	66	67	35	
4	35	67	68	36	
4	36	68	69	37	
4	37	69	70	38	
4	38	70	71	39	
4	39	71	72	40	
4	40	72	73	41	
4	41	73	74	42	
4	42	74	75	43	
4	43	75	76	44	
4	44	76	77	45	
4	45	77	78	46	
4	46	78	79	47	
4	47	79	80	48	
4	48	80	81	49	
4	49	81	82	50	
4	50	82	83	51	
4	51	83	84	52	
4	52	84	85	53	
4	53	85	86	54	
4	54	86	87	55	
4	55	87	88	56	
4	56	88	89	57	
4	57	89	90	58	
4	58	90	91	59	
4	59	91	92	60	
4	60	92	93	61	
4	61	93	94	62	
4	62	94	95	63	
4	63	95	64	32	
4	64	96	97	65	
4	65	97	98	66	
4	66	98	99	67	
4	67	99	100	68	
4	68	100	101	69	
4	69	101	102	70	
4	70	102	103	71	
4	71	103	104	72	
4	72	104	105	73	
4	73	105	106	74	
4	74	106	107	75	
4	75	107	108	76	
4	76	108	109	77	
4	77	109	110	78	
4	78	110	111	79	
4	79	111	112	80	
4	80	112	113	81	
4	81	113	114	82	
4	82	114	115	83	
4	83	115	116	84	
4	84	116	117	85	
4	85	117	118	86	
4	86	118	119	87	
4	87	119	120	88	
4	88	120	121	89	
4	89	121	122	90	
4	90	122	123	91	
4	91	123	124	92	
4	92	124	125	93	
4	93	125	126	94	
4	94	126	127	95	
4	95	127	96	64	
4	96	128	129	97	
4	97	129	130	98	
4	98	130	131	99	
4	99	131	132	100	
4	100	132	133	101	
4	101	133	134	102	
4	102	134	135	103	
4	103	135	136	104	
4	104	136	137	105	
4	105	137	138	106	
4	106	138	139	107	
4	107	139	140	108	
4	108	140	141	109	
4	109	141	142	110	
4	110	142	143	111	
4	111	143	144	112	
4	112	144	145	113	
4	113	145	146	114	
4	114	146	147	115	
4	115	147	148	116	
4	116	148	149	117	
4	117	149	150	118	
4	118	150	151	119	
4	119	151	152	120	
4	120	152	153	121	
4	121	153	154	122	
4	122	154	155	123	
4	123	155	156	124	
4	124	156	157	125	
4	125	157	158	126	
4	126	158	159	127	
4	127	159	128	96	

CELL_TYPES	128
9
9
9
9
9
9
9
9
9
9
9
9
9
9
9
9
9
9
9
9
9
9
9
9
9
9
9
9
9
9
9
9
9
9
9
9
9
9
9
9
9
9
9
9
9
9
9
9
9
9
9
9
9
9
9
9
9
9
9
9
9
9
9
9
9
9
9
9
9
9
9
9
9
9
9
9
9
9
9
9
9
9
9
9
9
9
9
9
9
9
9
9
9
9
9
9
9
9
9
9
9
9
9
9
9
9
9
9
9
9
9
9
9
9
9
9
9
9
9
9
9
9
9
9
9
9
9
9

POINT_DATA	160
VECTORS chi0 float
-0.16945	0.0368569	0	
-0.189654	0.031751	0	
-0.200819	0.0245048	0	
-0.204811	0.0135734	0	
-0.20545	-6.34878e-010	0	
-0.204811	-0.0135734	0	
-0.200819	-0.0245048	0	
-0.189654	-0.031751	0	
-0.16945	-0.0368569	0	
-0.142174	-0.0374705	0	
-0.101866	-0.0368124	0	
-0.0531173	-0.0366294	0	
-8.29816e-010	-0.0366339	0	
0.0531173	-0.0366294	0	
0.101866	-0.0368124	0	
0.142174	-0.0374705	0	
0.16945	-0.0368569	0	
0.189654	-0.031751	0	
0.200819	-0.0245048	0	
0.204811	-0.0135734	0	
0.20545	2.02239e-009	0	
0.204811	0.0135734	0	
0.200819	0.0245048	0	
0.189654	0.031751	0	
0.16945	0.0368569	0	
0.142174	0.0374705	0	
0.101866	0.0368124	0	
0.0531173	0.0366294	0	
2.08978e-009	0.0366339	0	
-0.0531173	0.0366294	0	
-0.101866	0.0368124	0	
-0.142174	0.0374705	0	
-0.0735435	0.045743	0	
-0.105853	0.0482536	0	
-0.132115	0.0396354	0	
-0.147867	0.0220571	0	
-0.152657	-3.12462e-010	0	
-0.147867	-0.0220571	0	
-0.132115	-0.0396354	0	
-0.105853	-0.0482536	0	
-0.0735435	-0.045743	0	
-0.0677626	-0.0366075	0	
-0.0535584	-0.0265115	0	
-0.0301957	-0.0188137	0	
-4.82764e-010	-0.0160491	0	
0.0301956	-0.0188137	0	
0.0535584	-0.0265115	0	
0.0677626	-0.0366075	0	
0.0735435	-0.045743	0	
0.105853	-0.0482536	0	
0.132115	-0.0396354	0	
0.147867	-0.0220571	0	
0.152657	1.72209e-009	0	
0.147867	0.0220571	0	
0.132115	0.0396354	0	
0.105853	0.0482536	0	
0.0735435	0.045743	0	
0.0677626	0.0366075	0	
0.0535584	0.0265115	0	
0.0301957	0.0188137	0	
1.74281e-009	0.0160491	0	
-0.0301956	0.0188137	0	
-0.0535584	0.0265115	0	
-0.0677626	0.0366075	0	
-0.0279363	0.035926	0	
-0.050761	0.0481933	0	
-0.0758361	0.0461266	0	
-0.094328	0.0280025	0	
-0.100856	-8.63977e-012	0	
-0.094328	-0.0280025	0	
-0.0758361	-0.0461266	0	
-0.050761	-0.0481933	0	
-0.0279363	-0.035926	0	
-0.0320733	-0.0289863	0	
-0.0279571	-0.0196048	0	
-0.0165133	-0.0106808	0	
-1.20664e-010	-0.00684905	0	
0.0165133	-0.0106808	0	
0.0279571	-0.0196048	0	
0.0320733	-0.0289863	0	
0.0279363	-0.035926	0	
0.050761	-0.0481933	0	
0.0758361	-0.0461266	0	
0.094328	-0.0280025	0	
0.100856	1.36258e-009	0	
0.094328	0.0280025	0	
0.0758361	0.0461266	0	
0.050761	0.0481933	0	
0.0279363	0.035926	0	
0.0320733	0.0289863	0	
0.0279571	0.0196048	0	
0.0165133	0.0106808	0	
1.38236e-009	0.00684905	0	
-0.0165133	0.0106808	0	
-0.0279571	0.0196048	0	
-0.0320733	0.0289863	0	
-0.00735905	0.0197795	0	
-0.0175263	0.0421192	0	
-0.0321319	0.0483073	0	
-0.0450914	0.0322678	0	
-0.0501555	3.0335e-010	0	
-0.0450914	-0.0322678	0	
-0.0321319	-0.0483073	0	
-0.0175263	-0.0421192	0	
-0.00735905	-0.0197795	0	
-0.014789	-0.0161711	0	
-0.0151356	-0.011147	0	
-0.00924558	-0.00533936	0	
2.57243e-010	-0.00250237	0	
0.00924558	-0.00533936	0	
0.0151356	-0.011147	0	
0.014789	-0.0161711	0	
0.00735905	-0.0197795	0	
0.0175263	-0.0421192	0	
0.0321319	-0.0483073	0	
0.0450914	-0.0322678	0	
0.0501555	9.89566e-010	0	
0.0450914	0.0322678	0	
0.0321319	0.0483073	0	
0.0175263	0.0421192	0	
0.00735906	0.0197795	0	
0.014789	0.0161711	0	
0.0151356	0.011147	0	
0.00924558	0.00533937	0	
1.00662e-009	0.00250237	0	
-0.00924558	0.00533936	0	
-0.0151356	0.011147	0	
-0.014789	0.0161711	0	
3.27332e-008	-1.03295e-009	0	
4.01066e-008	0.0329617	0	
2.72917e-008	0.0484621	0	
1.40609e-008	0.0358813	0	
7.80975e-009	6.3596e-010	0	
1.28928e-008	-0.0358813	0	
2.52897e-008	-0.0484621	0	
3.57336e-008	-0.0329617	0	
3.27332e-008	-1.21782e-009	0	
-0.00838799	1.07794e-009	0	
-0.0115457	5.09184e-009	0	
-0.00760397	1.10473e-008	0	
6.33405e-010	1.46188e-008	0	
0.00760397	1.22899e-008	0	
0.0115457	7.333e-009	0	
0.00838799	2.32001e-009	0	
-5.28705e-008	-1.21782e-009	0	
-3.88429e-008	-0.0329617	0	
-2.60423e-008	-0.0484621	0	
-1.28259e-008	-0.0358813	0	
-6.5847e-009	6.3596e-010	0	
-1.16577e-008	0.0358813	0	
-2.40402e-008	0.0484621	0	
-3.44699e-008	0.0329617	0	
-1.00686e-008	-1.12538e-009	0	
0.00838799	-8.26483e-010	0	
0.0115457	-3.06477e-009	0	
0.00760397	-9.21606e-009	0	
6.33405e-010	-1.2835e-008	0	
-0.00760397	-1.04587e-008	0	
-0.0115457	-5.30592e-009	0	
-0.00838799	-2.06856e-009	0	
VECTORS chi1 float
-0.0368569	0.16945	0	
-0.0374705	0.142174	0	
-0.0368124	0.101866	0	
-0.0366294	0.0531173	0	
-0.0366339	-8.28601e-010	0	
-0.0366294	-0.0531173	0	
-0.0368124	-0.101866	0	
-0.0374705	-0.142174	0	
-0.0368569	-0.16945	0	
-0.031751	-0.189654	0	
-0.0245048	-0.200819	0	
-0.0135734	-0.204811	0	
-6.41523e-010	-0.20545	0	
0.0135734	-0.204811	0	
0.0245048	-0.200819	0	
0.031751	-0.189654	0	
0.0368569	-0.16945	0	
0.0374705	-0.142174	0	
0.0368124	-0.101866	0	
0.0366294	-0.0531173	0	
0.0366339	2.09212e-009	0	
0.0366294	0.0531173	0	
0.0368124	0.101866	0	
0.0374705	0.142174	0	
0.0368569	0.16945	0	
0.031751	0.189654	0	
0.0245048	0.200819	0	
0.0135734	0.204811	0	
2.01471e-009	0.20545	0	
-0.0135734	0.204811	0	
-0.0245048	0.200819	0	
-0.031751	0.189654	0	
-0.045743	0.0735435	0	
-0.0366075	0.0677626	0	
-0.0265115	0.0535584	0	
-0.0188137	0.0301956	0	
-0.0160491	-4.80808e-010	0	
-0.0188137	-0.0301957	0	
-0.0265115	-0.0535584	0	
-0.0366075	-0.0677626	0	
-0.045743	-0.0735435	0	
-0.0482536	-0.105853	0	
-0.0396354	-0.132115	0	
-0.0220571	-0.147867	0	
-3.20106e-010	-0.152657	0	
0.0220571	-0.147867	0	
0.0396354	-0.132115	0	
0.0482536	-0.105853	0	
0.045743	-0.0735435	0	
0.0366075	-0.0677626	0	
0.0265115	-0.0535584	0	
0.0188137	-0.0301956	0	
0.0160491	1.74419e-009	0	
0.0188137	0.0301957	0	
0.0265115	0.0535584	0	
0.0366075	0.0677626	0	
0.045743	0.0735435	0	
0.0482536	0.105853	0	
0.0396354	0.132115	0	
0.0220571	0.147867	0	
1.71432e-009	0.152657	0	
-0.0220571	0.147867	0	
-0.0396354	0.132115	0	
-0.0482536	0.105853	0	
-0.035926	0.0279363	0	
-0.0289863	0.0320733	0	
-0.0196048	0.0279571	0	
-0.0106808	0.0165133	0	
-0.00684905	-1.18963e-010	0	
-0.0106808	-0.0165133	0	
-0.0196048	-0.0279571	0	
-0.0289863	-0.0320733	0	
-0.035926	-0.0279363	0	
-0.0481933	-0.050761	0	
-0.0461266	-0.0758361	0	
-0.0280025	-0.094328	0	
-1.74394e-011	-0.100856	0	
0.0280025	-0.094328	0	
0.0461266	-0.0758361	0	
0.0481933	-0.050761	0	
0.035926	-0.0279363	0	
0.0289863	-0.0320733	0	
0.0196048	-0.0279571	0	
0.0106808	-0.0165133	0	
0.00684905	1.3836e-009	0	
0.0106808	0.0165133	0	
0.0196048	0.0279571	0	
0.0289863	0.0320733	0	
0.035926	0.0279363	0	
0.0481933	0.050761	0	
0.0461266	0.0758361	0	
0.0280025	0.094328	0	
1.35419e-009	0.100856	0	
-0.0280025	0.094328	0	
-0.0461266	0.0758361	0	
-0.0481933	0.050761	0	
-0.0197795	0.00735905	0	
-0.0161711	0.014789	0	
-0.011147	0.0151356	0	
-0.00533936	0.00924558	0	
-0.00250237	2.5891e-010	0	
-0.00533936	-0.00924558	0	
-0.011147	-0.0151356	0	
-0.0161711	-0.014789	0	
-0.0197795	-0.00735905	0	
-0.0421192	-0.0175263	0	
-0.0483073	-0.0321319	0	
-0.0322678	-0.0450914	0	
2.93127e-010	-0.0501555	0	
0.0322678	-0.0450914	0	
0.0483073	-0.0321319	0	
0.0421192	-0.0175263	0	
0.0197795	-0.00735905	0	
0.0161711	-0.014789	0	
0.011147	-0.0151356	0	
0.00533936	-0.00924558	0	
0.00250237	1.00763e-009	0	
0.00533937	0.00924558	0	
0.011147	0.0151356	0	
0.0161711	0.014789	0	
0.0197795	0.00735906	0	
0.0421192	0.0175263	0	
0.0483073	0.0321319	0	
0.0322678	0.0450914	0	
9.798e-010	0.0501555	0	
-0.0322678	0.0450914	0	
-0.0483073	0.0321319	0	
-0.0421192	0.0175263	0	
-1.21955e-009	-5.28682e-008	0	
2.31643e-009	0.00838799	0	
7.32877e-009	0.0115457	0	
1.22859e-008	0.00760397	0	
1.46149e-008	6.34635e-010	0	
1.10432e-008	-0.00760397	0	
5.08762e-009	-0.0115457	0	
1.07435e-009	-0.00838799	0	
-1.21955e-009	3.27355e-008	0	
-0.0329617	3.57357e-008	0	
-0.0484621	2.52911e-008	0	
-0.0358813	1.28938e-008	0	
6.2678e-010	7.81059e-009	0	
0.0358813	1.4062e-008	0	
0.0484621	2.72932e-008	0	
0.0329617	4.01086e-008	0	
-1.03468e-009	3.27355e-008	0	
-2.07214e-009	-0.00838799	0	
-5.31015e-009	-0.0115457	0	
-1.04627e-008	-0.00760397	0	
-1.28389e-008	6.34635e-010	0	
-9.2201e-009	0.00760397	0	
-3.069e-009	0.0115457	0	
-8.30067e-010	0.00838799	0	
-1.12712e-009	-1.00663e-008	0	
0.0329617	-3.44679e-008	0	
0.0484621	-2.40388e-008	0	
0.0358813	-1.16567e-008	0	
6.2678e-010	-6.58386e-009	0	
-0.0358813	-1.28249e-008	0	
-0.0484621	-2.60408e-008	0	
-0.0329617	-3.88409e-008	0	
VECTORS chi2 float
0.143247	-0.143247	0	
0.121437	-0.161995	0	
0.090613	-0.178088	0	
0.0494046	-0.189532	0	
-1.01734e-010	-0.193699	0	
-0.0494046	-0.189532	0	
-0.090613	-0.178088	0	
-0.121437	-0.161995	0	
-0.143247	-0.143247	0	
-0.161995	-0.121437	0	
-0.178088	-0.090613	0	
-0.189532	-0.0494046	0	
-0.193699	-9.28232e-011	0	
-0.189532	0.0494046	0	
-0.178088	0.090613	0	
-0.161995	0.121437	0	
-0.143247	0.143247	0	
-0.121437	0.161995	0	
-0.090613	0.178088	0	
-0.0494046	0.189532	0	
-1.60397e-010	0.193699	0	
0.0494046	0.189532	0	
0.090613	0.178088	0	
0.121437	0.161995	0	
0.143247	0.143247	0	
0.161995	0.121437	0	
0.178088	0.090613	0	
0.189532	0.0494046	0	
0.193699	-1.51484e-010	0	
0.189532	-0.0494046	0	
0.178088	-0.090613	0	
0.161995	-0.121437	0	
0.118118	-0.118118	0	
0.123206	-0.118233	0	
0.105682	-0.119321	0	
0.0626161	-0.121341	0	
-1.0766e-010	-0.122264	0	
-0.0626161	-0.121341	0	
-0.105682	-0.119321	0	
-0.123206	-0.118233	0	
-0.118118	-0.118118	0	
-0.118233	-0.123206	0	
-0.119321	-0.105682	0	
-0.121341	-0.0626161	0	
-0.122264	-9.87666e-011	0	
-0.121341	0.0626161	0	
-0.119321	0.105682	0	
-0.118233	0.123206	0	
-0.118118	0.118118	0	
-0.123206	0.118233	0	
-0.105682	0.119321	0	
-0.0626161	0.121341	0	
-1.48191e-010	0.122264	0	
0.0626161	0.121341	0	
0.105682	0.119321	0	
0.123206	0.118233	0	
0.118118	0.118118	0	
0.118233	0.123206	0	
0.119321	0.105682	0	
0.121341	0.0626161	0	
0.122264	-1.39294e-010	0	
0.121341	-0.0626161	0	
0.119321	-0.105682	0	
0.118233	-0.123206	0	
0.0817573	-0.0817573	0	
0.109242	-0.0782926	0	
0.108162	-0.0757386	0	
0.0696517	-0.073943	0	
-1.11467e-010	-0.0729854	0	
-0.0696517	-0.073943	0	
-0.108162	-0.0757386	0	
-0.109242	-0.0782926	0	
-0.0817573	-0.0817573	0	
-0.0782926	-0.109242	0	
-0.0757386	-0.108162	0	
-0.073943	-0.0696517	0	
-0.0729854	-1.02671e-010	0	
-0.073943	0.0696517	0	
-0.0757386	0.108162	0	
-0.0782926	0.109242	0	
-0.0817573	0.0817573	0	
-0.109242	0.0782926	0	
-0.108162	0.0757386	0	
-0.0696517	0.073943	0	
-1.39957e-010	0.0729854	0	
0.0696517	0.073943	0	
0.108162	0.0757386	0	
0.109242	0.0782926	0	
0.0817573	0.0817573	0	
0.0782926	0.109242	0	
0.0757386	0.108162	0	
0.073943	0.0696517	0	
0.0729854	-1.31158e-010	0	
0.073943	-0.0696517	0	
0.0757386	-0.108162	0	
0.0782926	-0.109242	0	
0.0422302	-0.0422302	0	
0.09051	-0.0390229	0	
0.107305	-0.0372669	0	
0.0756415	-0.0354155	0	
-1.15942e-010	-0.0340344	0	
-0.0756415	-0.0354155	0	
-0.107305	-0.0372669	0	
-0.09051	-0.0390229	0	
-0.0422302	-0.0422302	0	
-0.0390229	-0.09051	0	
-0.0372669	-0.107305	0	
-0.0354155	-0.0756415	0	
-0.0340344	-1.07363e-010	0	
-0.0354155	0.0756415	0	
-0.0372669	0.107305	0	
-0.0390229	0.09051	0	
-0.0422302	0.0422302	0	
-0.09051	0.0390229	0	
-0.107305	0.0372669	0	
-0.0756415	0.0354155	0	
-1.3048e-010	0.0340344	0	
0.0756415	0.0354155	0	
0.107305	0.0372669	0	
0.09051	0.0390229	0	
0.0422302	0.0422302	0	
0.0390229	0.09051	0	
0.0372669	0.107305	0	
0.0354155	0.0756415	0	
0.0340344	-1.219e-010	0	
0.0354155	-0.0756415	0	
0.0372669	-0.107305	0	
0.0390229	-0.09051	0	
4.32196e-009	-2.53568e-009	0	
0.068845	-7.86496e-010	0	
0.105793	4.603e-009	0	
0.0832566	1.28091e-008	0	
-1.21745e-010	1.74046e-008	0	
-0.0832566	1.29259e-008	0	
-0.105793	4.85946e-009	0	
-0.068845	-4.88198e-010	0	
-2.54007e-009	-2.53568e-009	0	
-4.93408e-010	-0.068845	0	
4.85425e-009	-0.105793	0	
1.29208e-008	-0.0832566	0	
1.73994e-008	-1.13545e-010	0	
1.2804e-008	0.0832566	0	
4.59778e-009	0.105793	0	
-7.91706e-010	0.068845	0	
-2.54007e-009	4.32635e-009	0	
-0.068845	9.78283e-010	0	
-0.105793	-4.76041e-009	0	
-0.0832566	-1.30129e-008	0	
-1.21745e-010	-1.76189e-008	0	
0.0832566	-1.31298e-008	0	
0.105793	-5.01687e-009	0	
0.068845	6.79984e-010	0	
8.90947e-010	8.95333e-010	0	
6.74774e-010	0.068845	0	
-5.02208e-009	0.105793	0	
-1.31349e-008	0.0832566	0	
-1.7624e-008	-1.13545e-010	0	
-1.30181e-008	-0.0832566	0	
-4.76562e-009	-0.105793	0	
9.73073e-010	-0.068845	0	
