# vtk DataFile Version 4.1
vtk output
ASCII
DATASET UNSTRUCTURED_GRID

POINTS	160	float
0.212132	-0.212132	0	
0.249441	-0.166671	0	
0.277164	-0.114805	0	
0.294236	-0.0585271	0	
0.3	0	0	
0.294236	0.0585271	0	
0.277164	0.114805	0	
0.249441	0.166671	0	
0.212132	0.212132	0	
0.166671	0.249441	0	
0.114805	0.277164	0	
0.0585271	0.294236	0	
1.84e-017	0.3	0	
-0.0585271	0.294236	0	
-0.114805	0.277164	0	
-0.166671	0.249441	0	
-0.212132	0.212132	0	
-0.249441	0.166671	0	
-0.277164	0.114805	0	
-0.294236	0.0585271	0	
-0.3	3.67e-017	0	
-0.294236	-0.0585271	0	
-0.277164	-0.114805	0	
-0.249441	-0.166671	0	
-0.212132	-0.212132	0	
-0.166671	-0.249441	0	
-0.114805	-0.277164	0	
-0.0585271	-0.294236	0	
-5.51e-017	-0.3	0	
0.0585271	-0.294236	0	
0.114805	-0.277164	0	
0.166671	-0.249441	0	
0.266673	-0.266673	0	
0.296913	-0.206142	0	
0.319383	-0.14042	0	
0.333221	-0.0711214	0	
0.337893	0	0	
0.333221	0.0711214	0	
0.319383	0.14042	0	
0.296913	0.206142	0	
0.266673	0.266673	0	
0.206142	0.296913	0	
0.14042	0.319383	0	
0.0711214	0.333221	0	
1.49e-017	0.337893	0	
-0.0711214	0.333221	0	
-0.14042	0.319383	0	
-0.206142	0.296913	0	
-0.266673	0.266673	0	
-0.296913	0.206142	0	
-0.319383	0.14042	0	
-0.333221	0.0711214	0	
-0.337893	2.98e-017	0	
-0.333221	-0.0711214	0	
-0.319383	-0.14042	0	
-0.296913	-0.206142	0	
-0.266673	-0.266673	0	
-0.206142	-0.296913	0	
-0.14042	-0.319383	0	
-0.0711214	-0.333221	0	
-4.47e-017	-0.337893	0	
0.0711214	-0.333221	0	
0.14042	-0.319383	0	
0.206142	-0.296913	0	
0.337434	-0.337434	0	
0.358503	-0.257352	0	
0.374159	-0.173652	0	
0.3838	-0.0874611	0	
0.387055	0	0	
0.3838	0.0874611	0	
0.374159	0.173652	0	
0.358503	0.257352	0	
0.337434	0.337434	0	
0.257352	0.358503	0	
0.173652	0.374159	0	
0.0874611	0.3838	0	
1.04e-017	0.387055	0	
-0.0874611	0.3838	0	
-0.173652	0.374159	0	
-0.257352	0.358503	0	
-0.337434	0.337434	0	
-0.358503	0.257352	0	
-0.374159	0.173652	0	
-0.3838	0.0874611	0	
-0.387055	2.07e-017	0	
-0.3838	-0.0874611	0	
-0.374159	-0.173652	0	
-0.358503	-0.257352	0	
-0.337434	-0.337434	0	
-0.257352	-0.358503	0	
-0.173652	-0.374159	0	
-0.0874611	-0.3838	0	
-3.11e-017	-0.387055	0	
0.0874611	-0.3838	0	
0.173652	-0.374159	0	
0.257352	-0.358503	0	
0.415961	-0.415961	0	
0.426853	-0.314182	0	
0.434946	-0.210532	0	
0.43993	-0.105594	0	
0.441613	0	0	
0.43993	0.105594	0	
0.434946	0.210532	0	
0.426853	0.314182	0	
0.415961	0.415961	0	
0.314182	0.426853	0	
0.210532	0.434946	0	
0.105594	0.43993	0	
5.36e-018	0.441613	0	
-0.105594	0.43993	0	
-0.210532	0.434946	0	
-0.314182	0.426853	0	
-0.415961	0.415961	0	
-0.426853	0.314182	0	
-0.434946	0.210532	0	
-0.43993	0.105594	0	
-0.441613	1.07e-017	0	
-0.43993	-0.105594	0	
-0.434946	-0.210532	0	
-0.426853	-0.314182	0	
-0.415961	-0.415961	0	
-0.314182	-0.426853	0	
-0.210532	-0.434946	0	
-0.105594	-0.43993	0	
-1.61e-017	-0.441613	0	
0.105594	-0.43993	0	
0.210532	-0.434946	0	
0.314182	-0.426853	0	
0.5	-0.5	0	
0.5	-0.375	0	
0.5	-0.25	0	
0.5	-0.125	0	
0.5	0	0	
0.5	0.125	0	
0.5	0.25	0	
0.5	0.375	0	
0.5	0.5	0	
0.375	0.5	0	
0.25	0.5	0	
0.125	0.5	0	
0	0.5	0	
-0.125	0.5	0	
-0.25	0.5	0	
-0.375	0.5	0	
-0.5	0.5	0	
-0.5	0.375	0	
-0.5	0.25	0	
-0.5	0.125	0	
-0.5	0	0	
-0.5	-0.125	0	
-0.5	-0.25	0	
-0.5	-0.375	0	
-0.5	-0.5	0	
-0.375	-0.5	0	
-0.25	-0.5	0	
-0.125	-0.5	0	
0	-0.5	0	
0.125	-0.5	0	
0.25	-0.5	0	
0.375	-0.5	0	

CELLS 128	640
4	0	32	33	1	
4	1	33	34	2	
4	2	34	35	3	
4	3	35	36	4	
4	4	36	37	5	
4	5	37	38	6	
4	6	38	39	7	
4	7	39	40	8	
4	8	40	41	9	
4	9	41	42	10	
4	10	42	43	11	
4	11	43	44	12	
4	12	44	45	13	
4	13	45	46	14	
4	14	46	47	15	
4	15	47	48	16	
4	16	48	49	17	
4	17	49	50	18	
4	18	50	51	19	
4	19	51	52	20	
4	20	52	53	21	
4	21	53	54	22	
4	22	54	55	23	
4	23	55	56	24	
4	24	56	57	25	
4	25	57	58	26	
4	26	58	59	27	
4	27	59	60	28	
4	28	60	61	29	
4	29	61	62	30	
4	30	62	63	31	
4	31	63	32	0	
4	32	64	65	33	
4	33	65	66	34	
4	34	66	67	35	
4	35	67	68	36	
4	36	68	69	37	
4	37	69	70	38	
4	38	70	71	39	
4	39	71	72	40	
4	40	72	73	41	
4	41	73	74	42	
4	42	74	75	43	
4	43	75	76	44	
4	44	76	77	45	
4	45	77	78	46	
4	46	78	79	47	
4	47	79	80	48	
4	48	80	81	49	
4	49	81	82	50	
4	50	82	83	51	
4	51	83	84	52	
4	52	84	85	53	
4	53	85	86	54	
4	54	86	87	55	
4	55	87	88	56	
4	56	88	89	57	
4	57	89	90	58	
4	58	90	91	59	
4	59	91	92	60	
4	60	92	93	61	
4	61	93	94	62	
4	62	94	95	63	
4	63	95	64	32	
4	64	96	97	65	
4	65	97	98	66	
4	66	98	99	67	
4	67	99	100	68	
4	68	100	101	69	
4	69	101	102	70	
4	70	102	103	71	
4	71	103	104	72	
4	72	104	105	73	
4	73	105	106	74	
4	74	106	107	75	
4	75	107	108	76	
4	76	108	109	77	
4	77	109	110	78	
4	78	110	111	79	
4	79	111	112	80	
4	80	112	113	81	
4	81	113	114	82	
4	82	114	115	83	
4	83	115	116	84	
4	84	116	117	85	
4	85	117	118	86	
4	86	118	119	87	
4	87	119	120	88	
4	88	120	121	89	
4	89	121	122	90	
4	90	122	123	91	
4	91	123	124	92	
4	92	124	125	93	
4	93	125	126	94	
4	94	126	127	95	
4	95	127	96	64	
4	96	128	129	97	
4	97	129	130	98	
4	98	130	131	99	
4	99	131	132	100	
4	100	132	133	101	
4	101	133	134	102	
4	102	134	135	103	
4	103	135	136	104	
4	104	136	137	105	
4	105	137	138	106	
4	106	138	139	107	
4	107	139	140	108	
4	108	140	141	109	
4	109	141	142	110	
4	110	142	143	111	
4	111	143	144	112	
4	112	144	145	113	
4	113	145	146	114	
4	114	146	147	115	
4	115	147	148	116	
4	116	148	149	117	
4	117	149	150	118	
4	118	150	151	119	
4	119	151	152	120	
4	120	152	153	121	
4	121	153	154	122	
4	122	154	155	123	
4	123	155	156	124	
4	124	156	157	125	
4	125	157	158	126	
4	126	158	159	127	
4	127	159	128	96	

CELL_TYPES	128
9
9
9
9
9
9
9
9
9
9
9
9
9
9
9
9
9
9
9
9
9
9
9
9
9
9
9
9
9
9
9
9
9
9
9
9
9
9
9
9
9
9
9
9
9
9
9
9
9
9
9
9
9
9
9
9
9
9
9
9
9
9
9
9
9
9
9
9
9
9
9
9
9
9
9
9
9
9
9
9
9
9
9
9
9
9
9
9
9
9
9
9
9
9
9
9
9
9
9
9
9
9
9
9
9
9
9
9
9
9
9
9
9
9
9
9
9
9
9
9
9
9
9
9
9
9
9
9

POINT_DATA	160
VECTORS chi0 float
-0.187267	0.0774809	0	
-0.208424	0.0648721	0	
-0.220134	0.0480306	0	
-0.224516	0.025787	0	
-0.225309	-7.3876e-010	0	
-0.224516	-0.025787	0	
-0.220134	-0.0480306	0	
-0.208424	-0.0648721	0	
-0.187267	-0.0774809	0	
-0.156519	-0.0836865	0	
-0.111918	-0.0870171	0	
-0.0582727	-0.0889301	0	
-1.01397e-009	-0.0895193	0	
0.0582727	-0.0889301	0	
0.111918	-0.0870171	0	
0.156519	-0.0836865	0	
0.187267	-0.0774809	0	
0.208424	-0.0648721	0	
0.220134	-0.0480306	0	
0.224516	-0.025787	0	
0.225309	2.64621e-009	0	
0.224516	0.025787	0	
0.220134	0.0480306	0	
0.208424	0.0648721	0	
0.187267	0.0774809	0	
0.156519	0.0836865	0	
0.111918	0.0870171	0	
0.0582727	0.0889301	0	
2.57777e-009	0.0895193	0	
-0.0582727	0.0889301	0	
-0.111918	0.0870171	0	
-0.156519	0.0836865	0	
-0.101999	0.0744196	0	
-0.135582	0.0727207	0	
-0.161393	0.0574765	0	
-0.17601	0.0314271	0	
-0.180267	-4.14424e-010	0	
-0.17601	-0.0314271	0	
-0.161393	-0.0574765	0	
-0.135582	-0.0727207	0	
-0.101999	-0.0744196	0	
-0.0902548	-0.0710104	0	
-0.0688614	-0.0655087	0	
-0.0379183	-0.0611359	0	
-6.89537e-010	-0.059584	0	
0.0379183	-0.0611359	0	
0.0688614	-0.0655087	0	
0.0902548	-0.0710104	0	
0.101999	-0.0744196	0	
0.135582	-0.0727207	0	
0.161393	-0.0574765	0	
0.17601	-0.0314271	0	
0.180267	2.37678e-009	0	
0.17601	0.0314272	0	
0.161393	0.0574765	0	
0.135582	0.0727207	0	
0.101999	0.0744196	0	
0.0902548	0.0710104	0	
0.0688614	0.0655087	0	
0.0379183	0.0611359	0	
2.25903e-009	0.059584	0	
-0.0379183	0.0611359	0	
-0.0688614	0.0655087	0	
-0.0902548	0.0710104	0	
-0.0424363	0.0555416	0	
-0.0701078	0.0677924	0	
-0.0976656	0.0617303	0	
-0.117073	0.0366033	0	
-0.123751	-2.18849e-011	0	
-0.117073	-0.0366033	0	
-0.0976656	-0.0617303	0	
-0.0701078	-0.0677924	0	
-0.0424363	-0.0555416	0	
-0.0448015	-0.0512162	0	
-0.0373302	-0.0446641	0	
-0.0214162	-0.0379679	0	
-2.5938e-010	-0.0350093	0	
0.0214162	-0.0379679	0	
0.0373302	-0.0446641	0	
0.0448015	-0.0512162	0	
0.0424363	-0.0555416	0	
0.0701078	-0.0677924	0	
0.0976656	-0.0617303	0	
0.117073	-0.0366033	0	
0.123751	1.96245e-009	0	
0.117073	0.0366033	0	
0.0976656	0.0617303	0	
0.0701078	0.0677924	0	
0.0424363	0.0555416	0	
0.0448015	0.0512162	0	
0.0373302	0.0446641	0	
0.0214162	0.0379679	0	
1.8283e-009	0.0350093	0	
-0.0214162	0.0379679	0	
-0.0373302	0.0446641	0	
-0.0448015	0.0512162	0	
-0.0116269	0.0299269	0	
-0.0251402	0.056494	0	
-0.0426784	0.0620219	0	
-0.0575266	0.040604	0	
-0.0632461	4.29973e-010	0	
-0.0575266	-0.040604	0	
-0.0426784	-0.0620219	0	
-0.0251402	-0.056494	0	
-0.0116269	-0.0299269	0	
-0.0200833	-0.0271638	0	
-0.0196129	-0.0234435	0	
-0.0116623	-0.0187615	0	
2.4205e-010	-0.0163418	0	
0.0116623	-0.0187615	0	
0.0196129	-0.0234435	0	
0.0200833	-0.0271638	0	
0.0116269	-0.0299269	0	
0.0251402	-0.056494	0	
0.0426784	-0.0620219	0	
0.0575266	-0.040604	0	
0.0632461	1.46473e-009	0	
0.0575266	0.040604	0	
0.0426784	0.0620219	0	
0.0251402	0.056494	0	
0.0116269	0.029927	0	
0.0200833	0.0271638	0	
0.0196129	0.0234435	0	
0.0116623	0.0187615	0	
1.32521e-009	0.0163419	0	
-0.0116623	0.0187615	0	
-0.0196129	0.0234435	0	
-0.0200833	0.0271638	0	
3.63206e-008	-6.41585e-009	0	
4.41055e-008	0.0420996	0	
3.03348e-008	0.0610417	0	
1.68676e-008	0.044787	0	
1.05976e-008	9.33851e-010	0	
1.54959e-008	-0.044787	0	
2.79112e-008	-0.0610417	0	
3.85353e-008	-0.0420996	0	
3.63206e-008	2.2695e-009	0	
-0.0106096	5.35924e-009	0	
-0.0142221	8.59505e-009	0	
-0.00927317	1.37238e-008	0	
7.84635e-010	1.70306e-008	0	
0.00927317	1.51596e-008	0	
0.0142221	1.10091e-008	0	
0.0106096	5.0577e-009	0	
-5.89451e-008	2.2695e-009	0	
-4.28506e-008	-0.0420996	0	
-2.87159e-008	-0.0610417	0	
-1.52702e-008	-0.044787	0	
-9.01415e-009	9.33851e-010	0	
-1.38985e-008	0.044787	0	
-2.62923e-008	0.0610417	0	
-3.72804e-008	0.0420996	0	
-1.13122e-008	-2.07317e-009	0	
0.0106096	-6.79852e-009	0	
0.0142221	-6.12759e-009	0	
0.00927317	-1.1265e-008	0	
7.84635e-010	-1.45799e-008	0	
-0.00927317	-1.27008e-008	0	
-0.0142221	-8.54161e-009	0	
-0.0106096	-6.49698e-009	0	
VECTORS chi1 float
-0.0774809	0.187267	0	
-0.0836865	0.156519	0	
-0.0870171	0.111918	0	
-0.0889301	0.0582727	0	
-0.0895193	-1.01236e-009	0	
-0.0889301	-0.0582727	0	
-0.0870171	-0.111918	0	
-0.0836865	-0.156519	0	
-0.0774809	-0.187267	0	
-0.0648721	-0.208424	0	
-0.0480306	-0.220134	0	
-0.025787	-0.224516	0	
-7.34258e-010	-0.225309	0	
0.025787	-0.224516	0	
0.0480306	-0.220134	0	
0.0648721	-0.208424	0	
0.0774809	-0.187267	0	
0.0836865	-0.156519	0	
0.0870171	-0.111918	0	
0.0889301	-0.0582727	0	
0.0895193	2.57928e-009	0	
0.0889301	0.0582727	0	
0.0870171	0.111918	0	
0.0836865	0.156519	0	
0.0774809	0.187267	0	
0.0648721	0.208424	0	
0.0480306	0.220134	0	
0.025787	0.224516	0	
2.64996e-009	0.225309	0	
-0.025787	0.224516	0	
-0.0480306	0.220134	0	
-0.0648721	0.208424	0	
-0.0744196	0.101999	0	
-0.0710104	0.0902548	0	
-0.0655087	0.0688614	0	
-0.0611359	0.0379183	0	
-0.059584	-6.87294e-010	0	
-0.0611359	-0.0379183	0	
-0.0655087	-0.0688614	0	
-0.0710104	-0.0902548	0	
-0.0744196	-0.101999	0	
-0.0727207	-0.135582	0	
-0.0574765	-0.161393	0	
-0.0314271	-0.17601	0	
-4.09917e-010	-0.180267	0	
0.0314271	-0.17601	0	
0.0574765	-0.161393	0	
0.0727207	-0.135582	0	
0.0744196	-0.101999	0	
0.0710104	-0.0902548	0	
0.0655087	-0.0688614	0	
0.0611359	-0.0379183	0	
0.059584	2.26003e-009	0	
0.0611359	0.0379183	0	
0.0655087	0.0688614	0	
0.0710104	0.0902548	0	
0.0744196	0.101999	0	
0.0727207	0.135582	0	
0.0574765	0.161393	0	
0.0314272	0.17601	0	
2.38046e-009	0.180267	0	
-0.0314271	0.17601	0	
-0.0574765	0.161393	0	
-0.0727207	0.135582	0	
-0.0555416	0.0424363	0	
-0.0512162	0.0448015	0	
-0.0446641	0.0373302	0	
-0.0379679	0.0214162	0	
-0.0350093	-2.56774e-010	0	
-0.0379679	-0.0214162	0	
-0.0446641	-0.0373302	0	
-0.0512162	-0.0448015	0	
-0.0555416	-0.0424363	0	
-0.0677924	-0.0701078	0	
-0.0617303	-0.0976656	0	
-0.0366033	-0.117073	0	
-1.63542e-011	-0.123751	0	
0.0366033	-0.117073	0	
0.0617303	-0.0976656	0	
0.0677924	-0.0701078	0	
0.0555416	-0.0424363	0	
0.0512162	-0.0448015	0	
0.0446641	-0.0373302	0	
0.0379679	-0.0214162	0	
0.0350093	1.82939e-009	0	
0.0379679	0.0214162	0	
0.0446641	0.0373302	0	
0.0512162	0.0448015	0	
0.0555416	0.0424363	0	
0.0677924	0.0701078	0	
0.0617303	0.0976656	0	
0.0366033	0.117073	0	
1.96629e-009	0.123751	0	
-0.0366033	0.117073	0	
-0.0617303	0.0976656	0	
-0.0677924	0.0701078	0	
-0.0299269	0.0116269	0	
-0.0271638	0.0200833	0	
-0.0234435	0.0196129	0	
-0.0187615	0.0116623	0	
-0.0163418	2.4456e-010	0	
-0.0187615	-0.0116623	0	
-0.0234435	-0.0196129	0	
-0.0271638	-0.0200833	0	
-0.0299269	-0.0116269	0	
-0.056494	-0.0251402	0	
-0.0620219	-0.0426784	0	
-0.040604	-0.0575266	0	
4.35504e-010	-0.0632461	0	
0.040604	-0.0575266	0	
0.0620219	-0.0426784	0	
0.056494	-0.0251402	0	
0.0299269	-0.0116269	0	
0.0271638	-0.0200833	0	
0.0234435	-0.0196129	0	
0.0187615	-0.0116623	0	
0.0163419	1.32651e-009	0	
0.0187615	0.0116623	0	
0.0234435	0.0196129	0	
0.0271638	0.0200833	0	
0.029927	0.0116269	0	
0.056494	0.0251402	0	
0.0620219	0.0426784	0	
0.040604	0.0575266	0	
1.46948e-009	0.0632461	0	
-0.040604	0.0575266	0	
-0.0620219	0.0426784	0	
-0.056494	0.0251402	0	
2.27192e-009	-5.89438e-008	0	
5.06085e-009	0.0106096	0	
1.10121e-008	0.0142221	0	
1.51623e-008	0.00927317	0	
1.7033e-008	7.86255e-010	0	
1.37265e-008	-0.00927317	0	
8.59804e-009	-0.0142221	0	
5.36239e-009	-0.0106096	0	
2.27192e-009	3.6322e-008	0	
-0.0420996	3.85365e-008	0	
-0.0610417	2.79121e-008	0	
-0.044787	1.54965e-008	0	
9.38906e-010	1.05982e-008	0	
0.044787	1.68682e-008	0	
0.0610417	3.03357e-008	0	
0.0420996	4.41067e-008	0	
-6.41342e-009	3.6322e-008	0	
-6.49384e-009	-0.0106096	0	
-8.53862e-009	-0.0142221	0	
-1.26981e-008	-0.00927317	0	
-1.45775e-008	7.86255e-010	0	
-1.12623e-008	0.00927317	0	
-6.12459e-009	0.0142221	0	
-6.79537e-009	0.0106096	0	
-2.07075e-009	-1.13109e-008	0	
0.0420996	-3.72792e-008	0	
0.0610417	-2.62913e-008	0	
0.044787	-1.38979e-008	0	
9.38906e-010	-9.01363e-009	0	
-0.044787	-1.52696e-008	0	
-0.0610417	-2.87149e-008	0	
-0.0420996	-4.28494e-008	0	
VECTORS chi2 float
0.131083	-0.131083	0	
0.111854	-0.148429	0	
0.0840841	-0.163309	0	
0.046263	-0.173818	0	
-1.06923e-010	-0.177556	0	
-0.046263	-0.173818	0	
-0.0840841	-0.163309	0	
-0.111854	-0.148429	0	
-0.131083	-0.131083	0	
-0.148429	-0.111854	0	
-0.163309	-0.0840841	0	
-0.173818	-0.046263	0	
-0.177556	-7.15878e-011	0	
-0.173818	0.046263	0	
-0.163309	0.0840841	0	
-0.148429	0.111854	0	
-0.131083	0.131083	0	
-0.111854	0.148429	0	
-0.0840841	0.163309	0	
-0.046263	0.173818	0	
-2.18878e-010	0.177556	0	
0.046263	0.173818	0	
0.0840841	0.163309	0	
0.111854	0.148429	0	
0.131083	0.131083	0	
0.148429	0.111854	0	
0.163309	0.0840841	0	
0.173818	0.046263	0	
0.177556	-1.83623e-010	0	
0.173818	-0.046263	0	
0.163309	-0.0840841	0	
0.148429	-0.111854	0	
0.119783	-0.119783	0	
0.120037	-0.120199	0	
0.100648	-0.120901	0	
0.0589755	-0.122317	0	
-1.17869e-010	-0.122917	0	
-0.0589755	-0.122317	0	
-0.100648	-0.120901	0	
-0.120037	-0.120199	0	
-0.119783	-0.119783	0	
-0.120199	-0.120037	0	
-0.120901	-0.100648	0	
-0.122317	-0.0589755	0	
-0.122917	-8.2321e-011	0	
-0.122317	0.0589755	0	
-0.120901	0.100648	0	
-0.120199	0.120037	0	
-0.119783	0.119783	0	
-0.120037	0.120199	0	
-0.100648	0.120901	0	
-0.0589755	0.122317	0	
-2.02384e-010	0.122917	0	
0.0589755	0.122317	0	
0.100648	0.120901	0	
0.120037	0.120199	0	
0.119783	0.119783	0	
0.120199	0.120037	0	
0.120901	0.100648	0	
0.122317	0.0589755	0	
0.122917	-1.66873e-010	0	
0.122317	-0.0589755	0	
0.120901	-0.100648	0	
0.120199	-0.120037	0	
0.0897881	-0.0897881	0	
0.111755	-0.0847352	0	
0.107018	-0.0800991	0	
0.06792	-0.0763637	0	
-1.28132e-010	-0.0745276	0	
-0.06792	-0.0763637	0	
-0.107018	-0.0800991	0	
-0.111755	-0.0847352	0	
-0.0897881	-0.0897881	0	
-0.0847352	-0.111755	0	
-0.0800991	-0.107018	0	
-0.0763637	-0.06792	0	
-0.0745276	-9.28298e-011	0	
-0.0763637	0.06792	0	
-0.0800991	0.107018	0	
-0.0847352	0.111755	0	
-0.0897881	0.0897881	0	
-0.111755	0.0847352	0	
-0.107018	0.0800991	0	
-0.06792	0.0763637	0	
-1.87469e-010	0.0745276	0	
0.06792	0.0763637	0	
0.107018	0.0800991	0	
0.111755	0.0847352	0	
0.0897881	0.0897881	0	
0.0847352	0.111755	0	
0.0800991	0.107018	0	
0.0763637	0.06792	0	
0.0745276	-1.52133e-010	0	
0.0763637	-0.06792	0	
0.0800991	-0.107018	0	
0.0847352	-0.111755	0	
0.0489869	-0.0489869	0	
0.0937462	-0.0446162	0	
0.107679	-0.0410948	0	
0.0750966	-0.0373042	0	
-1.39511e-010	-0.0348262	0	
-0.0750966	-0.0373042	0	
-0.107679	-0.0410948	0	
-0.0937462	-0.0446162	0	
-0.0489869	-0.0489869	0	
-0.0446162	-0.0937462	0	
-0.0410948	-0.107679	0	
-0.0373042	-0.0750966	0	
-0.0348262	-1.05017e-010	0	
-0.0373042	0.0750966	0	
-0.0410948	0.107679	0	
-0.0446162	0.0937462	0	
-0.0489869	0.0489869	0	
-0.0937462	0.0446162	0	
-0.107679	0.0410948	0	
-0.0750966	0.0373042	0	
-1.70589e-010	0.0348262	0	
0.0750966	0.0373042	0	
0.107679	0.0410948	0	
0.0937462	0.0446162	0	
0.0489869	0.0489869	0	
0.0446162	0.0937462	0	
0.0410948	0.107679	0	
0.0373042	0.0750966	0	
0.0348262	-1.36049e-010	0	
0.0373042	-0.0750966	0	
0.0410948	-0.107679	0	
0.0446162	-0.0937462	0	
4.5671e-009	-2.69104e-009	0	
0.0690879	-7.45049e-010	0	
0.106182	4.57932e-009	0	
0.0840854	1.29423e-008	0	
-1.54033e-010	1.78417e-008	0	
-0.0840854	1.30868e-008	0	
-0.106182	4.89626e-009	0	
-0.0690879	-3.06007e-010	0	
-2.69859e-009	-2.69104e-009	0	
-3.167e-010	-0.0690879	0	
4.88341e-009	-0.106182	0	
1.30723e-008	-0.0840854	0	
1.78266e-008	-1.20952e-010	0	
1.29278e-008	0.0840854	0	
4.56647e-009	0.106182	0	
-7.55742e-010	0.0690879	0	
-2.69859e-009	4.57465e-009	0	
-0.0690879	9.76463e-010	0	
-0.106182	-4.71451e-009	0	
-0.0840854	-1.31491e-008	0	
-1.54033e-010	-1.80593e-008	0	
0.0840854	-1.32936e-008	0	
0.106182	-5.03145e-009	0	
0.0690879	5.3742e-010	0	
9.34254e-010	9.41808e-010	0	
5.26726e-010	0.0690879	0	
-5.0443e-009	0.106182	0	
-1.3308e-008	0.0840854	0	
-1.80744e-008	-1.20952e-010	0	
-1.31636e-008	-0.0840854	0	
-4.72736e-009	-0.106182	0	
9.65769e-010	-0.0690879	0	
