# vtk DataFile Version 4.1
vtk output
ASCII
DATASET UNSTRUCTURED_GRID

POINTS	160	float
0.212132	-0.212132	0	
0.249441	-0.166671	0	
0.277164	-0.114805	0	
0.294236	-0.0585271	0	
0.3	0	0	
0.294236	0.0585271	0	
0.277164	0.114805	0	
0.249441	0.166671	0	
0.212132	0.212132	0	
0.166671	0.249441	0	
0.114805	0.277164	0	
0.0585271	0.294236	0	
1.84e-017	0.3	0	
-0.0585271	0.294236	0	
-0.114805	0.277164	0	
-0.166671	0.249441	0	
-0.212132	0.212132	0	
-0.249441	0.166671	0	
-0.277164	0.114805	0	
-0.294236	0.0585271	0	
-0.3	3.67e-017	0	
-0.294236	-0.0585271	0	
-0.277164	-0.114805	0	
-0.249441	-0.166671	0	
-0.212132	-0.212132	0	
-0.166671	-0.249441	0	
-0.114805	-0.277164	0	
-0.0585271	-0.294236	0	
-5.51e-017	-0.3	0	
0.0585271	-0.294236	0	
0.114805	-0.277164	0	
0.166671	-0.249441	0	
0.259613	-0.259613	0	
0.290768	-0.201033	0	
0.313918	-0.137104	0	
0.328174	-0.069491	0	
0.332988	0	0	
0.328174	0.069491	0	
0.313918	0.137104	0	
0.290768	0.201033	0	
0.259613	0.259613	0	
0.201033	0.290768	0	
0.137104	0.313918	0	
0.069491	0.328174	0	
1.53e-017	0.332988	0	
-0.069491	0.328174	0	
-0.137104	0.313918	0	
-0.201033	0.290768	0	
-0.259613	0.259613	0	
-0.290768	0.201033	0	
-0.313918	0.137104	0	
-0.328174	0.069491	0	
-0.332988	3.07e-017	0	
-0.328174	-0.069491	0	
-0.313918	-0.137104	0	
-0.290768	-0.201033	0	
-0.259613	-0.259613	0	
-0.201033	-0.290768	0	
-0.137104	-0.313918	0	
-0.069491	-0.328174	0	
-4.6e-017	-0.332988	0	
0.069491	-0.328174	0	
0.137104	-0.313918	0	
0.201033	-0.290768	0	
0.329043	-0.329043	0	
0.3512	-0.251279	0	
0.367663	-0.169711	0	
0.377802	-0.0855235	0	
0.381225	0	0	
0.377802	0.0855235	0	
0.367663	0.169711	0	
0.3512	0.251279	0	
0.329043	0.329043	0	
0.251279	0.3512	0	
0.169711	0.367663	0	
0.0855235	0.377802	0	
1.09e-017	0.381225	0	
-0.0855235	0.377802	0	
-0.169711	0.367663	0	
-0.251279	0.3512	0	
-0.329043	0.329043	0	
-0.3512	0.251279	0	
-0.367663	0.169711	0	
-0.377802	0.0855235	0	
-0.381225	2.18e-017	0	
-0.377802	-0.0855235	0	
-0.367663	-0.169711	0	
-0.3512	-0.251279	0	
-0.329043	-0.329043	0	
-0.251279	-0.3512	0	
-0.169711	-0.367663	0	
-0.0855235	-0.377802	0	
-3.27e-017	-0.381225	0	
0.0855235	-0.377802	0	
0.169711	-0.367663	0	
0.251279	-0.3512	0	
0.410181	-0.410181	0	
0.421822	-0.309998	0	
0.430472	-0.207817	0	
0.435799	-0.10426	0	
0.437597	0	0	
0.435799	0.10426	0	
0.430472	0.207817	0	
0.421822	0.309998	0	
0.410181	0.410181	0	
0.309998	0.421822	0	
0.207817	0.430472	0	
0.10426	0.435799	0	
5.73e-018	0.437597	0	
-0.10426	0.435799	0	
-0.207817	0.430472	0	
-0.309998	0.421822	0	
-0.410181	0.410181	0	
-0.421822	0.309998	0	
-0.430472	0.207817	0	
-0.435799	0.10426	0	
-0.437597	1.15e-017	0	
-0.435799	-0.10426	0	
-0.430472	-0.207817	0	
-0.421822	-0.309998	0	
-0.410181	-0.410181	0	
-0.309998	-0.421822	0	
-0.207817	-0.430472	0	
-0.10426	-0.435799	0	
-1.72e-017	-0.437597	0	
0.10426	-0.435799	0	
0.207817	-0.430472	0	
0.309998	-0.421822	0	
0.5	-0.5	0	
0.5	-0.375	0	
0.5	-0.25	0	
0.5	-0.125	0	
0.5	0	0	
0.5	0.125	0	
0.5	0.25	0	
0.5	0.375	0	
0.5	0.5	0	
0.375	0.5	0	
0.25	0.5	0	
0.125	0.5	0	
0	0.5	0	
-0.125	0.5	0	
-0.25	0.5	0	
-0.375	0.5	0	
-0.5	0.5	0	
-0.5	0.375	0	
-0.5	0.25	0	
-0.5	0.125	0	
-0.5	0	0	
-0.5	-0.125	0	
-0.5	-0.25	0	
-0.5	-0.375	0	
-0.5	-0.5	0	
-0.375	-0.5	0	
-0.25	-0.5	0	
-0.125	-0.5	0	
0	-0.5	0	
0.125	-0.5	0	
0.25	-0.5	0	
0.375	-0.5	0	

CELLS 128	640
4	0	32	33	1	
4	1	33	34	2	
4	2	34	35	3	
4	3	35	36	4	
4	4	36	37	5	
4	5	37	38	6	
4	6	38	39	7	
4	7	39	40	8	
4	8	40	41	9	
4	9	41	42	10	
4	10	42	43	11	
4	11	43	44	12	
4	12	44	45	13	
4	13	45	46	14	
4	14	46	47	15	
4	15	47	48	16	
4	16	48	49	17	
4	17	49	50	18	
4	18	50	51	19	
4	19	51	52	20	
4	20	52	53	21	
4	21	53	54	22	
4	22	54	55	23	
4	23	55	56	24	
4	24	56	57	25	
4	25	57	58	26	
4	26	58	59	27	
4	27	59	60	28	
4	28	60	61	29	
4	29	61	62	30	
4	30	62	63	31	
4	31	63	32	0	
4	32	64	65	33	
4	33	65	66	34	
4	34	66	67	35	
4	35	67	68	36	
4	36	68	69	37	
4	37	69	70	38	
4	38	70	71	39	
4	39	71	72	40	
4	40	72	73	41	
4	41	73	74	42	
4	42	74	75	43	
4	43	75	76	44	
4	44	76	77	45	
4	45	77	78	46	
4	46	78	79	47	
4	47	79	80	48	
4	48	80	81	49	
4	49	81	82	50	
4	50	82	83	51	
4	51	83	84	52	
4	52	84	85	53	
4	53	85	86	54	
4	54	86	87	55	
4	55	87	88	56	
4	56	88	89	57	
4	57	89	90	58	
4	58	90	91	59	
4	59	91	92	60	
4	60	92	93	61	
4	61	93	94	62	
4	62	94	95	63	
4	63	95	64	32	
4	64	96	97	65	
4	65	97	98	66	
4	66	98	99	67	
4	67	99	100	68	
4	68	100	101	69	
4	69	101	102	70	
4	70	102	103	71	
4	71	103	104	72	
4	72	104	105	73	
4	73	105	106	74	
4	74	106	107	75	
4	75	107	108	76	
4	76	108	109	77	
4	77	109	110	78	
4	78	110	111	79	
4	79	111	112	80	
4	80	112	113	81	
4	81	113	114	82	
4	82	114	115	83	
4	83	115	116	84	
4	84	116	117	85	
4	85	117	118	86	
4	86	118	119	87	
4	87	119	120	88	
4	88	120	121	89	
4	89	121	122	90	
4	90	122	123	91	
4	91	123	124	92	
4	92	124	125	93	
4	93	125	126	94	
4	94	126	127	95	
4	95	127	96	64	
4	96	128	129	97	
4	97	129	130	98	
4	98	130	131	99	
4	99	131	132	100	
4	100	132	133	101	
4	101	133	134	102	
4	102	134	135	103	
4	103	135	136	104	
4	104	136	137	105	
4	105	137	138	106	
4	106	138	139	107	
4	107	139	140	108	
4	108	140	141	109	
4	109	141	142	110	
4	110	142	143	111	
4	111	143	144	112	
4	112	144	145	113	
4	113	145	146	114	
4	114	146	147	115	
4	115	147	148	116	
4	116	148	149	117	
4	117	149	150	118	
4	118	150	151	119	
4	119	151	152	120	
4	120	152	153	121	
4	121	153	154	122	
4	122	154	155	123	
4	123	155	156	124	
4	124	156	157	125	
4	125	157	158	126	
4	126	158	159	127	
4	127	159	128	96	

CELL_TYPES	128
9
9
9
9
9
9
9
9
9
9
9
9
9
9
9
9
9
9
9
9
9
9
9
9
9
9
9
9
9
9
9
9
9
9
9
9
9
9
9
9
9
9
9
9
9
9
9
9
9
9
9
9
9
9
9
9
9
9
9
9
9
9
9
9
9
9
9
9
9
9
9
9
9
9
9
9
9
9
9
9
9
9
9
9
9
9
9
9
9
9
9
9
9
9
9
9
9
9
9
9
9
9
9
9
9
9
9
9
9
9
9
9
9
9
9
9
9
9
9
9
9
9
9
9
9
9
9
9

POINT_DATA	160
VECTORS chi0 float
-0.18764	0.0771506	0	
-0.208645	0.0646439	0	
-0.220153	0.0479452	0	
-0.224452	0.0257834	0	
-0.225233	-7.66422e-010	0	
-0.224452	-0.0257834	0	
-0.220153	-0.0479452	0	
-0.208645	-0.0646439	0	
-0.18764	-0.0771506	0	
-0.156553	-0.0835063	0	
-0.111838	-0.0870641	0	
-0.0581836	-0.0891019	0	
-1.01061e-009	-0.0897243	0	
0.0581836	-0.0891019	0	
0.111838	-0.0870641	0	
0.156553	-0.0835063	0	
0.18764	-0.0771506	0	
0.208645	-0.0646439	0	
0.220153	-0.0479452	0	
0.224452	-0.0257834	0	
0.225233	2.65009e-009	0	
0.224452	0.0257834	0	
0.220153	0.0479452	0	
0.208645	0.0646439	0	
0.18764	0.0771506	0	
0.156553	0.0835063	0	
0.111838	0.0870641	0	
0.0581836	0.0891019	0	
2.57938e-009	0.0897243	0	
-0.0581836	0.0891019	0	
-0.111838	0.0870641	0	
-0.156553	0.0835063	0	
-0.110582	0.0756482	0	
-0.143521	0.0725664	0	
-0.16836	0.0567123	0	
-0.182044	0.0308109	0	
-0.185935	-4.75987e-010	0	
-0.182044	-0.0308109	0	
-0.16836	-0.0567123	0	
-0.143521	-0.0725664	0	
-0.110582	-0.0756482	0	
-0.096818	-0.0728914	0	
-0.0732198	-0.0679911	0	
-0.0400766	-0.0642225	0	
-7.28127e-010	-0.0629312	0	
0.0400766	-0.0642225	0	
0.0732198	-0.0679911	0	
0.096818	-0.0728914	0	
0.110582	-0.0756482	0	
0.143521	-0.0725664	0	
0.16836	-0.0567123	0	
0.182044	-0.0308109	0	
0.185935	2.42084e-009	0	
0.182044	0.0308109	0	
0.16836	0.0567124	0	
0.143521	0.0725664	0	
0.110582	0.0756482	0	
0.096818	0.0728914	0	
0.0732198	0.0679911	0	
0.0400766	0.0642225	0	
2.30253e-009	0.0629313	0	
-0.0400766	0.0642225	0	
-0.0732198	0.0679911	0	
-0.096818	0.0728914	0	
-0.0475969	0.058036	0	
-0.0763587	0.0687148	0	
-0.104277	0.0615192	0	
-0.123654	0.0361294	0	
-0.13025	-8.2964e-011	0	
-0.123654	-0.0361294	0	
-0.104277	-0.0615192	0	
-0.0763587	-0.0687148	0	
-0.047597	-0.058036	0	
-0.0488188	-0.0536568	0	
-0.0401759	-0.0470429	0	
-0.0229475	-0.0404321	0	
-3.0702e-010	-0.0375666	0	
0.0229475	-0.0404321	0	
0.0401759	-0.0470429	0	
0.0488188	-0.0536568	0	
0.0475969	-0.058036	0	
0.0763587	-0.0687148	0	
0.104277	-0.0615192	0	
0.123654	-0.0361294	0	
0.13025	2.02137e-009	0	
0.123654	0.0361294	0	
0.104277	0.0615192	0	
0.0763587	0.0687148	0	
0.047597	0.058036	0	
0.0488188	0.0536568	0	
0.0401759	0.0470429	0	
0.0229475	0.0404322	0	
1.88208e-009	0.0375666	0	
-0.0229475	0.0404321	0	
-0.0401759	0.0470429	0	
-0.0488188	0.0536568	0	
-0.013147	0.0318378	0	
-0.0276635	0.0572907	0	
-0.046102	0.0619479	0	
-0.0616012	0.0402878	0	
-0.0675663	3.88411e-010	0	
-0.0616012	-0.0402878	0	
-0.046102	-0.0619479	0	
-0.0276635	-0.0572907	0	
-0.013147	-0.0318378	0	
-0.021388	-0.0289529	0	
-0.0205701	-0.0250245	0	
-0.0121936	-0.0201536	0	
2.08221e-010	-0.0176586	0	
0.0121936	-0.0201536	0	
0.0205701	-0.0250245	0	
0.021388	-0.0289529	0	
0.013147	-0.0318378	0	
0.0276635	-0.0572907	0	
0.046102	-0.0619479	0	
0.0616012	-0.0402878	0	
0.0675663	1.50926e-009	0	
0.0616012	0.0402878	0	
0.046102	0.0619479	0	
0.0276635	0.0572907	0	
0.013147	0.0318378	0	
0.021388	0.0289529	0	
0.0205701	0.0250245	0	
0.0121936	0.0201536	0	
1.3655e-009	0.0176586	0	
-0.0121936	0.0201536	0	
-0.0205701	0.0250245	0	
-0.021388	0.0289529	0	
3.64656e-008	-6.16279e-009	0	
4.41726e-008	0.0419599	0	
3.03082e-008	0.0607552	0	
1.68808e-008	0.0445714	0	
1.06377e-008	9.35284e-010	0	
1.55016e-008	-0.0445714	0	
2.78209e-008	-0.0607552	0	
3.83253e-008	-0.04196	0	
3.64656e-008	2.31179e-009	0	
-0.0107683	5.41612e-009	0	
-0.0144062	8.62541e-009	0	
-0.00942257	1.37337e-008	0	
7.87836e-010	1.70182e-008	0	
0.00942257	1.51676e-008	0	
0.0144062	1.10174e-008	0	
0.0107683	4.88094e-009	0	
-5.91403e-008	2.3118e-009	0	
-4.29229e-008	-0.04196	0	
-2.86898e-008	-0.0607552	0	
-1.52816e-008	-0.0445714	0	
-9.05453e-009	9.35284e-010	0	
-1.39024e-008	0.0445714	0	
-2.62026e-008	0.0607552	0	
-3.70757e-008	0.0419599	0	
-1.13374e-008	-1.9255e-009	0	
0.0107683	-7.07324e-009	0	
0.0144062	-6.17572e-009	0	
0.00942257	-1.12455e-008	0	
7.87836e-010	-1.45328e-008	0	
-0.00942257	-1.26794e-008	0	
-0.0144062	-8.56767e-009	0	
-0.0107683	-6.53806e-009	0	
VECTORS chi1 float
-0.0771506	0.18764	0	
-0.0835063	0.156553	0	
-0.0870641	0.111838	0	
-0.0891019	0.0581836	0	
-0.0897243	-1.00792e-009	0	
-0.0891019	-0.0581836	0	
-0.0870641	-0.111838	0	
-0.0835063	-0.156553	0	
-0.0771506	-0.18764	0	
-0.0646439	-0.208645	0	
-0.0479452	-0.220153	0	
-0.0257834	-0.224452	0	
-7.52479e-010	-0.225233	0	
0.0257834	-0.224452	0	
0.0479452	-0.220153	0	
0.0646439	-0.208645	0	
0.0771506	-0.18764	0	
0.0835063	-0.156553	0	
0.0870641	-0.111838	0	
0.0891019	-0.0581836	0	
0.0897243	2.57472e-009	0	
0.0891019	0.0581836	0	
0.0870641	0.111838	0	
0.0835063	0.156553	0	
0.0771506	0.18764	0	
0.0646439	0.208645	0	
0.0479452	0.220153	0	
0.0257834	0.224452	0	
2.65841e-009	0.225233	0	
-0.0257834	0.224452	0	
-0.0479452	0.220153	0	
-0.0646439	0.208645	0	
-0.0756482	0.110582	0	
-0.0728914	0.096818	0	
-0.0679911	0.0732198	0	
-0.0642225	0.0400766	0	
-0.0629312	-7.25797e-010	0	
-0.0642225	-0.0400766	0	
-0.0679911	-0.0732198	0	
-0.0728914	-0.096818	0	
-0.0756482	-0.110582	0	
-0.0725664	-0.143521	0	
-0.0567123	-0.16836	0	
-0.0308109	-0.182044	0	
-4.6218e-010	-0.185935	0	
0.0308109	-0.182044	0	
0.0567123	-0.16836	0	
0.0725664	-0.143521	0	
0.0756482	-0.110582	0	
0.0728914	-0.096818	0	
0.0679911	-0.0732198	0	
0.0642225	-0.0400766	0	
0.0629313	2.29915e-009	0	
0.0642225	0.0400766	0	
0.0679911	0.0732198	0	
0.0728914	0.096818	0	
0.0756482	0.110582	0	
0.0725664	0.143521	0	
0.0567124	0.16836	0	
0.0308109	0.182044	0	
2.42901e-009	0.185935	0	
-0.0308109	0.182044	0	
-0.0567123	0.16836	0	
-0.0725664	0.143521	0	
-0.058036	0.0475969	0	
-0.0536568	0.0488188	0	
-0.0470429	0.0401759	0	
-0.0404321	0.0229475	0	
-0.0375666	-3.05235e-010	0	
-0.0404321	-0.0229475	0	
-0.0470429	-0.0401759	0	
-0.0536568	-0.0488188	0	
-0.058036	-0.047597	0	
-0.0687148	-0.0763587	0	
-0.0615192	-0.104277	0	
-0.0361294	-0.123654	0	
-6.96547e-011	-0.13025	0	
0.0361294	-0.123654	0	
0.0615192	-0.104277	0	
0.0687148	-0.0763587	0	
0.058036	-0.0475969	0	
0.0536568	-0.0488188	0	
0.0470429	-0.0401759	0	
0.0404321	-0.0229475	0	
0.0375666	1.87943e-009	0	
0.0404322	0.0229475	0	
0.0470429	0.0401759	0	
0.0536568	0.0488188	0	
0.058036	0.047597	0	
0.0687148	0.0763587	0	
0.0615192	0.104277	0	
0.0361294	0.123654	0	
2.03015e-009	0.13025	0	
-0.0361294	0.123654	0	
-0.0615192	0.104277	0	
-0.0687148	0.0763587	0	
-0.0318378	0.013147	0	
-0.0289529	0.021388	0	
-0.0250245	0.0205701	0	
-0.0201536	0.0121936	0	
-0.0176586	2.09274e-010	0	
-0.0201536	-0.0121936	0	
-0.0250245	-0.0205701	0	
-0.0289529	-0.021388	0	
-0.0318378	-0.013147	0	
-0.0572907	-0.0276635	0	
-0.0619479	-0.046102	0	
-0.0402878	-0.0616012	0	
4.01185e-010	-0.0675663	0	
0.0402878	-0.0616012	0	
0.0619479	-0.046102	0	
0.0572907	-0.0276635	0	
0.0318378	-0.013147	0	
0.0289529	-0.021388	0	
0.0250245	-0.0205701	0	
0.0201536	-0.0121936	0	
0.0176586	1.36386e-009	0	
0.0201536	0.0121936	0	
0.0250245	0.0205701	0	
0.0289529	0.021388	0	
0.0318378	0.013147	0	
0.0572907	0.0276635	0	
0.0619479	0.046102	0	
0.0402878	0.0616012	0	
1.52024e-009	0.0675663	0	
-0.0402878	0.0616012	0	
-0.0619479	0.046102	0	
-0.0572907	0.0276635	0	
2.32142e-009	-5.91398e-008	0	
4.89066e-009	0.0107683	0	
1.10254e-008	0.0144062	0	
1.51739e-008	0.00942257	0	
1.70237e-008	7.87783e-010	0	
1.37399e-008	-0.00942257	0	
8.63343e-009	-0.0144062	0	
5.42581e-009	-0.0107683	0	
2.32142e-009	3.64661e-008	0	
-0.04196	3.83256e-008	0	
-0.0607552	2.78209e-008	0	
-0.0445714	1.55015e-008	0	
9.46701e-010	1.06376e-008	0	
0.0445714	1.68807e-008	0	
0.0607552	3.03081e-008	0	
0.0419599	4.41727e-008	0	
-6.15316e-009	3.64661e-008	0	
-6.52837e-009	-0.0107683	0	
-8.55965e-009	-0.0144062	0	
-1.26732e-008	-0.00942257	0	
-1.45273e-008	7.87783e-010	0	
-1.12392e-008	0.00942257	0	
-6.16767e-009	0.0144062	0	
-7.06352e-009	0.0107683	0	
-1.91587e-009	-1.13369e-008	0	
0.0419599	-3.70755e-008	0	
0.0607552	-2.62026e-008	0	
0.0445714	-1.39025e-008	0	
9.46701e-010	-9.05469e-009	0	
-0.0445714	-1.52817e-008	0	
-0.0607552	-2.86898e-008	0	
-0.04196	-4.29227e-008	0	
VECTORS chi2 float
0.1312	-0.1312	0	
0.111776	-0.148822	0	
0.0839289	-0.163734	0	
0.0461541	-0.17418	0	
-6.90019e-011	-0.17788	0	
-0.0461541	-0.17418	0	
-0.0839289	-0.163734	0	
-0.111776	-0.148822	0	
-0.1312	-0.1312	0	
-0.148822	-0.111776	0	
-0.163734	-0.0839289	0	
-0.17418	-0.0461541	0	
-0.17788	-1.32688e-010	0	
-0.17418	0.0461541	0	
-0.163734	0.0839289	0	
-0.148822	0.111776	0	
-0.1312	0.1312	0	
-0.111776	0.148822	0	
-0.0839289	0.163734	0	
-0.0461541	0.17418	0	
-1.82926e-010	0.17788	0	
0.0461541	0.17418	0	
0.0839289	0.163734	0	
0.111776	0.148822	0	
0.1312	0.1312	0	
0.148822	0.111776	0	
0.163734	0.0839289	0	
0.17418	0.0461541	0	
0.17788	-2.46621e-010	0	
0.17418	-0.0461541	0	
0.163734	-0.0839289	0	
0.148822	-0.111776	0	
0.122159	-0.122159	0	
0.120131	-0.123893	0	
0.0993761	-0.12574	0	
0.0577223	-0.128031	0	
-7.89463e-011	-0.128981	0	
-0.0577223	-0.128031	0	
-0.0993761	-0.12574	0	
-0.120131	-0.123893	0	
-0.122159	-0.122159	0	
-0.123893	-0.120131	0	
-0.12574	-0.0993761	0	
-0.128031	-0.0577223	0	
-0.128981	-1.42446e-010	0	
-0.128031	0.0577223	0	
-0.12574	0.0993761	0	
-0.123893	0.120131	0	
-0.122159	0.122159	0	
-0.120131	0.123893	0	
-0.0993761	0.12574	0	
-0.0577223	0.128031	0	
-1.68124e-010	0.128981	0	
0.0577223	0.128031	0	
0.0993761	0.12574	0	
0.120131	0.123893	0	
0.122159	0.122159	0	
0.123893	0.120131	0	
0.12574	0.0993761	0	
0.128031	0.0577223	0	
0.128981	-2.31632e-010	0	
0.128031	-0.0577223	0	
0.12574	-0.0993761	0	
0.123893	-0.120131	0	
0.0938379	-0.0938379	0	
0.113372	-0.0889843	0	
0.106762	-0.0845467	0	
0.0670778	-0.0811269	0	
-8.98791e-011	-0.0794964	0	
-0.0670778	-0.0811269	0	
-0.106762	-0.0845467	0	
-0.113372	-0.0889843	0	
-0.0938379	-0.0938379	0	
-0.0889843	-0.113372	0	
-0.0845467	-0.106762	0	
-0.0811269	-0.0670778	0	
-0.0794964	-1.52717e-010	0	
-0.0811269	0.0670778	0	
-0.0845467	0.106762	0	
-0.0889843	0.113372	0	
-0.0938379	0.0938379	0	
-0.113372	0.0889843	0	
-0.106762	0.0845467	0	
-0.0670778	0.0811269	0	
-1.53455e-010	0.0794964	0	
0.0670778	0.0811269	0	
0.106762	0.0845467	0	
0.113372	0.0889843	0	
0.0938379	0.0938379	0	
0.0889843	0.113372	0	
0.0845467	0.106762	0	
0.0811269	0.0670778	0	
0.0794964	-2.16299e-010	0	
0.0811269	-0.0670778	0	
0.0845467	-0.106762	0	
0.0889843	-0.113372	0	
0.0521982	-0.0521982	0	
0.095327	-0.0476378	0	
0.107802	-0.0439018	0	
0.0745899	-0.0399809	0	
-1.02971e-010	-0.0374816	0	
-0.0745899	-0.0399809	0	
-0.107802	-0.0439018	0	
-0.095327	-0.0476378	0	
-0.0521982	-0.0521982	0	
-0.0476378	-0.095327	0	
-0.0439018	-0.107802	0	
-0.0399809	-0.0745899	0	
-0.0374816	-1.64367e-010	0	
-0.0399809	0.0745899	0	
-0.0439018	0.107802	0	
-0.0476378	0.095327	0	
-0.0521982	0.0521982	0	
-0.095327	0.0476378	0	
-0.107802	0.0439018	0	
-0.0745899	0.0399809	0	
-1.36939e-010	0.0374816	0	
0.0745899	0.0399809	0	
0.107802	0.0439018	0	
0.095327	0.0476378	0	
0.0521982	0.0521982	0	
0.0476378	0.095327	0	
0.0439018	0.107802	0	
0.0399809	0.0745899	0	
0.0374816	-1.98339e-010	0	
0.0399809	-0.0745899	0	
0.0439018	-0.107802	0	
0.0476378	-0.095327	0	
4.62495e-009	-2.7498e-009	0	
0.0691164	-7.72674e-010	0	
0.106219	4.53264e-009	0	
0.0841475	1.29071e-008	0	
-1.20589e-010	1.78326e-008	0	
-0.0841475	1.30541e-008	0	
-0.106219	4.8539e-009	0	
-0.0691164	-3.22039e-010	0	
-2.72062e-009	-2.7498e-009	0	
-2.87115e-010	-0.0691164	0	
4.89079e-009	-0.106219	0	
1.30921e-008	-0.0841475	0	
1.78709e-008	-1.79872e-010	0	
1.29451e-008	0.0841475	0	
4.56953e-009	0.106219	0	
-7.3775e-010	0.0691164	0	
-2.72062e-009	4.59577e-009	0	
-0.0691164	9.65836e-010	0	
-0.106219	-4.71813e-009	0	
-0.0841475	-1.31724e-008	0	
-1.20589e-010	-1.81106e-008	0	
0.0841475	-1.33194e-008	0	
0.106219	-5.03939e-009	0	
0.0691164	5.15201e-010	0	
9.52162e-010	9.22989e-010	0	
5.50124e-010	0.0691164	0	
-5.0025e-009	0.106219	0	
-1.32814e-008	0.0841475	0	
-1.80723e-008	-1.79872e-010	0	
-1.31343e-008	-0.0841475	0	
-4.68124e-009	-0.106219	0	
1.00076e-009	-0.0691164	0	
