# vtk DataFile Version 4.1
vtk output
ASCII
DATASET UNSTRUCTURED_GRID

POINTS	6	float
0	0	0	
1	0	0	
2	0	0	
2	1	0	
1	1	0	
0	1	0	

CELLS 4	16
3	0	1	4	
3	1	2	3	
3	3	4	1	
3	4	5	0	

CELL_TYPES	4
5
5
5
5

POINT_DATA	6
VECTORS u float
-6.60317e-013	-5.50265e-013	0	
-0.00517949	-0.0218642	0	
-0.00599554	-0.0399784	0	
0.00896697	-0.0401754	0	
0.00840381	-0.0210772	0	
6.60317e-013	-0.00831048	0	
