# vtk DataFile Version 4.1
vtk output
ASCII
DATASET UNSTRUCTURED_GRID

POINTS	30401	float
0	0	0	
0	1	0	
0	2	0	
0	3	0	
0	4	0	
0	5	0	
0	6	0	
0	7	0	
0	8	0	
0	9	0	
0	10	0	
0	11	0	
0	12	0	
0	13	0	
0	14	0	
0	15	0	
0	16	0	
0	17	0	
0	18	0	
0	19	0	
0	20	0	
0	21	0	
0	22	0	
0	23	0	
0	24	0	
0	25	0	
0	26	0	
0	27	0	
0	28	0	
0	29	0	
0	30	0	
0	31	0	
0	32	0	
0	33	0	
0	34	0	
0	35	0	
0	36	0	
0	37	0	
0	38	0	
0	39	0	
0	40	0	
0	41	0	
0	42	0	
0	43	0	
0	44	0	
0	45	0	
0	46	0	
0	47	0	
0	48	0	
0	49	0	
0	50	0	
0	51	0	
0	52	0	
0	53	0	
0	54	0	
0	55	0	
0	56	0	
0	57	0	
0	58	0	
0	59	0	
0	60	0	
0	61	0	
0	62	0	
0	63	0	
0	64	0	
0	65	0	
0	66	0	
0	67	0	
0	68	0	
0	69	0	
0	70	0	
0	71	0	
0	72	0	
0	73	0	
0	74	0	
0	75	0	
0	76	0	
0	77	0	
0	78	0	
0	79	0	
0	80	0	
0	81	0	
0	82	0	
0	83	0	
0	84	0	
0	85	0	
0	86	0	
0	87	0	
0	88	0	
0	89	0	
0	90	0	
0	91	0	
0	92	0	
0	93	0	
0	94	0	
0	95	0	
0	96	0	
0	97	0	
0	98	0	
0	99	0	
0	100	0	
1	0	0	
1	1	0	
1	2	0	
1	3	0	
1	4	0	
1	5	0	
1	6	0	
1	7	0	
1	8	0	
1	9	0	
1	10	0	
1	11	0	
1	12	0	
1	13	0	
1	14	0	
1	15	0	
1	16	0	
1	17	0	
1	18	0	
1	19	0	
1	20	0	
1	21	0	
1	22	0	
1	23	0	
1	24	0	
1	25	0	
1	26	0	
1	27	0	
1	28	0	
1	29	0	
1	30	0	
1	31	0	
1	32	0	
1	33	0	
1	34	0	
1	35	0	
1	36	0	
1	37	0	
1	38	0	
1	39	0	
1	40	0	
1	41	0	
1	42	0	
1	43	0	
1	44	0	
1	45	0	
1	46	0	
1	47	0	
1	48	0	
1	49	0	
1	50	0	
1	51	0	
1	52	0	
1	53	0	
1	54	0	
1	55	0	
1	56	0	
1	57	0	
1	58	0	
1	59	0	
1	60	0	
1	61	0	
1	62	0	
1	63	0	
1	64	0	
1	65	0	
1	66	0	
1	67	0	
1	68	0	
1	69	0	
1	70	0	
1	71	0	
1	72	0	
1	73	0	
1	74	0	
1	75	0	
1	76	0	
1	77	0	
1	78	0	
1	79	0	
1	80	0	
1	81	0	
1	82	0	
1	83	0	
1	84	0	
1	85	0	
1	86	0	
1	87	0	
1	88	0	
1	89	0	
1	90	0	
1	91	0	
1	92	0	
1	93	0	
1	94	0	
1	95	0	
1	96	0	
1	97	0	
1	98	0	
1	99	0	
1	100	0	
2	0	0	
2	1	0	
2	2	0	
2	3	0	
2	4	0	
2	5	0	
2	6	0	
2	7	0	
2	8	0	
2	9	0	
2	10	0	
2	11	0	
2	12	0	
2	13	0	
2	14	0	
2	15	0	
2	16	0	
2	17	0	
2	18	0	
2	19	0	
2	20	0	
2	21	0	
2	22	0	
2	23	0	
2	24	0	
2	25	0	
2	26	0	
2	27	0	
2	28	0	
2	29	0	
2	30	0	
2	31	0	
2	32	0	
2	33	0	
2	34	0	
2	35	0	
2	36	0	
2	37	0	
2	38	0	
2	39	0	
2	40	0	
2	41	0	
2	42	0	
2	43	0	
2	44	0	
2	45	0	
2	46	0	
2	47	0	
2	48	0	
2	49	0	
2	50	0	
2	51	0	
2	52	0	
2	53	0	
2	54	0	
2	55	0	
2	56	0	
2	57	0	
2	58	0	
2	59	0	
2	60	0	
2	61	0	
2	62	0	
2	63	0	
2	64	0	
2	65	0	
2	66	0	
2	67	0	
2	68	0	
2	69	0	
2	70	0	
2	71	0	
2	72	0	
2	73	0	
2	74	0	
2	75	0	
2	76	0	
2	77	0	
2	78	0	
2	79	0	
2	80	0	
2	81	0	
2	82	0	
2	83	0	
2	84	0	
2	85	0	
2	86	0	
2	87	0	
2	88	0	
2	89	0	
2	90	0	
2	91	0	
2	92	0	
2	93	0	
2	94	0	
2	95	0	
2	96	0	
2	97	0	
2	98	0	
2	99	0	
2	100	0	
3	0	0	
3	1	0	
3	2	0	
3	3	0	
3	4	0	
3	5	0	
3	6	0	
3	7	0	
3	8	0	
3	9	0	
3	10	0	
3	11	0	
3	12	0	
3	13	0	
3	14	0	
3	15	0	
3	16	0	
3	17	0	
3	18	0	
3	19	0	
3	20	0	
3	21	0	
3	22	0	
3	23	0	
3	24	0	
3	25	0	
3	26	0	
3	27	0	
3	28	0	
3	29	0	
3	30	0	
3	31	0	
3	32	0	
3	33	0	
3	34	0	
3	35	0	
3	36	0	
3	37	0	
3	38	0	
3	39	0	
3	40	0	
3	41	0	
3	42	0	
3	43	0	
3	44	0	
3	45	0	
3	46	0	
3	47	0	
3	48	0	
3	49	0	
3	50	0	
3	51	0	
3	52	0	
3	53	0	
3	54	0	
3	55	0	
3	56	0	
3	57	0	
3	58	0	
3	59	0	
3	60	0	
3	61	0	
3	62	0	
3	63	0	
3	64	0	
3	65	0	
3	66	0	
3	67	0	
3	68	0	
3	69	0	
3	70	0	
3	71	0	
3	72	0	
3	73	0	
3	74	0	
3	75	0	
3	76	0	
3	77	0	
3	78	0	
3	79	0	
3	80	0	
3	81	0	
3	82	0	
3	83	0	
3	84	0	
3	85	0	
3	86	0	
3	87	0	
3	88	0	
3	89	0	
3	90	0	
3	91	0	
3	92	0	
3	93	0	
3	94	0	
3	95	0	
3	96	0	
3	97	0	
3	98	0	
3	99	0	
3	100	0	
4	0	0	
4	1	0	
4	2	0	
4	3	0	
4	4	0	
4	5	0	
4	6	0	
4	7	0	
4	8	0	
4	9	0	
4	10	0	
4	11	0	
4	12	0	
4	13	0	
4	14	0	
4	15	0	
4	16	0	
4	17	0	
4	18	0	
4	19	0	
4	20	0	
4	21	0	
4	22	0	
4	23	0	
4	24	0	
4	25	0	
4	26	0	
4	27	0	
4	28	0	
4	29	0	
4	30	0	
4	31	0	
4	32	0	
4	33	0	
4	34	0	
4	35	0	
4	36	0	
4	37	0	
4	38	0	
4	39	0	
4	40	0	
4	41	0	
4	42	0	
4	43	0	
4	44	0	
4	45	0	
4	46	0	
4	47	0	
4	48	0	
4	49	0	
4	50	0	
4	51	0	
4	52	0	
4	53	0	
4	54	0	
4	55	0	
4	56	0	
4	57	0	
4	58	0	
4	59	0	
4	60	0	
4	61	0	
4	62	0	
4	63	0	
4	64	0	
4	65	0	
4	66	0	
4	67	0	
4	68	0	
4	69	0	
4	70	0	
4	71	0	
4	72	0	
4	73	0	
4	74	0	
4	75	0	
4	76	0	
4	77	0	
4	78	0	
4	79	0	
4	80	0	
4	81	0	
4	82	0	
4	83	0	
4	84	0	
4	85	0	
4	86	0	
4	87	0	
4	88	0	
4	89	0	
4	90	0	
4	91	0	
4	92	0	
4	93	0	
4	94	0	
4	95	0	
4	96	0	
4	97	0	
4	98	0	
4	99	0	
4	100	0	
5	0	0	
5	1	0	
5	2	0	
5	3	0	
5	4	0	
5	5	0	
5	6	0	
5	7	0	
5	8	0	
5	9	0	
5	10	0	
5	11	0	
5	12	0	
5	13	0	
5	14	0	
5	15	0	
5	16	0	
5	17	0	
5	18	0	
5	19	0	
5	20	0	
5	21	0	
5	22	0	
5	23	0	
5	24	0	
5	25	0	
5	26	0	
5	27	0	
5	28	0	
5	29	0	
5	30	0	
5	31	0	
5	32	0	
5	33	0	
5	34	0	
5	35	0	
5	36	0	
5	37	0	
5	38	0	
5	39	0	
5	40	0	
5	41	0	
5	42	0	
5	43	0	
5	44	0	
5	45	0	
5	46	0	
5	47	0	
5	48	0	
5	49	0	
5	50	0	
5	51	0	
5	52	0	
5	53	0	
5	54	0	
5	55	0	
5	56	0	
5	57	0	
5	58	0	
5	59	0	
5	60	0	
5	61	0	
5	62	0	
5	63	0	
5	64	0	
5	65	0	
5	66	0	
5	67	0	
5	68	0	
5	69	0	
5	70	0	
5	71	0	
5	72	0	
5	73	0	
5	74	0	
5	75	0	
5	76	0	
5	77	0	
5	78	0	
5	79	0	
5	80	0	
5	81	0	
5	82	0	
5	83	0	
5	84	0	
5	85	0	
5	86	0	
5	87	0	
5	88	0	
5	89	0	
5	90	0	
5	91	0	
5	92	0	
5	93	0	
5	94	0	
5	95	0	
5	96	0	
5	97	0	
5	98	0	
5	99	0	
5	100	0	
6	0	0	
6	1	0	
6	2	0	
6	3	0	
6	4	0	
6	5	0	
6	6	0	
6	7	0	
6	8	0	
6	9	0	
6	10	0	
6	11	0	
6	12	0	
6	13	0	
6	14	0	
6	15	0	
6	16	0	
6	17	0	
6	18	0	
6	19	0	
6	20	0	
6	21	0	
6	22	0	
6	23	0	
6	24	0	
6	25	0	
6	26	0	
6	27	0	
6	28	0	
6	29	0	
6	30	0	
6	31	0	
6	32	0	
6	33	0	
6	34	0	
6	35	0	
6	36	0	
6	37	0	
6	38	0	
6	39	0	
6	40	0	
6	41	0	
6	42	0	
6	43	0	
6	44	0	
6	45	0	
6	46	0	
6	47	0	
6	48	0	
6	49	0	
6	50	0	
6	51	0	
6	52	0	
6	53	0	
6	54	0	
6	55	0	
6	56	0	
6	57	0	
6	58	0	
6	59	0	
6	60	0	
6	61	0	
6	62	0	
6	63	0	
6	64	0	
6	65	0	
6	66	0	
6	67	0	
6	68	0	
6	69	0	
6	70	0	
6	71	0	
6	72	0	
6	73	0	
6	74	0	
6	75	0	
6	76	0	
6	77	0	
6	78	0	
6	79	0	
6	80	0	
6	81	0	
6	82	0	
6	83	0	
6	84	0	
6	85	0	
6	86	0	
6	87	0	
6	88	0	
6	89	0	
6	90	0	
6	91	0	
6	92	0	
6	93	0	
6	94	0	
6	95	0	
6	96	0	
6	97	0	
6	98	0	
6	99	0	
6	100	0	
7	0	0	
7	1	0	
7	2	0	
7	3	0	
7	4	0	
7	5	0	
7	6	0	
7	7	0	
7	8	0	
7	9	0	
7	10	0	
7	11	0	
7	12	0	
7	13	0	
7	14	0	
7	15	0	
7	16	0	
7	17	0	
7	18	0	
7	19	0	
7	20	0	
7	21	0	
7	22	0	
7	23	0	
7	24	0	
7	25	0	
7	26	0	
7	27	0	
7	28	0	
7	29	0	
7	30	0	
7	31	0	
7	32	0	
7	33	0	
7	34	0	
7	35	0	
7	36	0	
7	37	0	
7	38	0	
7	39	0	
7	40	0	
7	41	0	
7	42	0	
7	43	0	
7	44	0	
7	45	0	
7	46	0	
7	47	0	
7	48	0	
7	49	0	
7	50	0	
7	51	0	
7	52	0	
7	53	0	
7	54	0	
7	55	0	
7	56	0	
7	57	0	
7	58	0	
7	59	0	
7	60	0	
7	61	0	
7	62	0	
7	63	0	
7	64	0	
7	65	0	
7	66	0	
7	67	0	
7	68	0	
7	69	0	
7	70	0	
7	71	0	
7	72	0	
7	73	0	
7	74	0	
7	75	0	
7	76	0	
7	77	0	
7	78	0	
7	79	0	
7	80	0	
7	81	0	
7	82	0	
7	83	0	
7	84	0	
7	85	0	
7	86	0	
7	87	0	
7	88	0	
7	89	0	
7	90	0	
7	91	0	
7	92	0	
7	93	0	
7	94	0	
7	95	0	
7	96	0	
7	97	0	
7	98	0	
7	99	0	
7	100	0	
8	0	0	
8	1	0	
8	2	0	
8	3	0	
8	4	0	
8	5	0	
8	6	0	
8	7	0	
8	8	0	
8	9	0	
8	10	0	
8	11	0	
8	12	0	
8	13	0	
8	14	0	
8	15	0	
8	16	0	
8	17	0	
8	18	0	
8	19	0	
8	20	0	
8	21	0	
8	22	0	
8	23	0	
8	24	0	
8	25	0	
8	26	0	
8	27	0	
8	28	0	
8	29	0	
8	30	0	
8	31	0	
8	32	0	
8	33	0	
8	34	0	
8	35	0	
8	36	0	
8	37	0	
8	38	0	
8	39	0	
8	40	0	
8	41	0	
8	42	0	
8	43	0	
8	44	0	
8	45	0	
8	46	0	
8	47	0	
8	48	0	
8	49	0	
8	50	0	
8	51	0	
8	52	0	
8	53	0	
8	54	0	
8	55	0	
8	56	0	
8	57	0	
8	58	0	
8	59	0	
8	60	0	
8	61	0	
8	62	0	
8	63	0	
8	64	0	
8	65	0	
8	66	0	
8	67	0	
8	68	0	
8	69	0	
8	70	0	
8	71	0	
8	72	0	
8	73	0	
8	74	0	
8	75	0	
8	76	0	
8	77	0	
8	78	0	
8	79	0	
8	80	0	
8	81	0	
8	82	0	
8	83	0	
8	84	0	
8	85	0	
8	86	0	
8	87	0	
8	88	0	
8	89	0	
8	90	0	
8	91	0	
8	92	0	
8	93	0	
8	94	0	
8	95	0	
8	96	0	
8	97	0	
8	98	0	
8	99	0	
8	100	0	
9	0	0	
9	1	0	
9	2	0	
9	3	0	
9	4	0	
9	5	0	
9	6	0	
9	7	0	
9	8	0	
9	9	0	
9	10	0	
9	11	0	
9	12	0	
9	13	0	
9	14	0	
9	15	0	
9	16	0	
9	17	0	
9	18	0	
9	19	0	
9	20	0	
9	21	0	
9	22	0	
9	23	0	
9	24	0	
9	25	0	
9	26	0	
9	27	0	
9	28	0	
9	29	0	
9	30	0	
9	31	0	
9	32	0	
9	33	0	
9	34	0	
9	35	0	
9	36	0	
9	37	0	
9	38	0	
9	39	0	
9	40	0	
9	41	0	
9	42	0	
9	43	0	
9	44	0	
9	45	0	
9	46	0	
9	47	0	
9	48	0	
9	49	0	
9	50	0	
9	51	0	
9	52	0	
9	53	0	
9	54	0	
9	55	0	
9	56	0	
9	57	0	
9	58	0	
9	59	0	
9	60	0	
9	61	0	
9	62	0	
9	63	0	
9	64	0	
9	65	0	
9	66	0	
9	67	0	
9	68	0	
9	69	0	
9	70	0	
9	71	0	
9	72	0	
9	73	0	
9	74	0	
9	75	0	
9	76	0	
9	77	0	
9	78	0	
9	79	0	
9	80	0	
9	81	0	
9	82	0	
9	83	0	
9	84	0	
9	85	0	
9	86	0	
9	87	0	
9	88	0	
9	89	0	
9	90	0	
9	91	0	
9	92	0	
9	93	0	
9	94	0	
9	95	0	
9	96	0	
9	97	0	
9	98	0	
9	99	0	
9	100	0	
10	0	0	
10	1	0	
10	2	0	
10	3	0	
10	4	0	
10	5	0	
10	6	0	
10	7	0	
10	8	0	
10	9	0	
10	10	0	
10	11	0	
10	12	0	
10	13	0	
10	14	0	
10	15	0	
10	16	0	
10	17	0	
10	18	0	
10	19	0	
10	20	0	
10	21	0	
10	22	0	
10	23	0	
10	24	0	
10	25	0	
10	26	0	
10	27	0	
10	28	0	
10	29	0	
10	30	0	
10	31	0	
10	32	0	
10	33	0	
10	34	0	
10	35	0	
10	36	0	
10	37	0	
10	38	0	
10	39	0	
10	40	0	
10	41	0	
10	42	0	
10	43	0	
10	44	0	
10	45	0	
10	46	0	
10	47	0	
10	48	0	
10	49	0	
10	50	0	
10	51	0	
10	52	0	
10	53	0	
10	54	0	
10	55	0	
10	56	0	
10	57	0	
10	58	0	
10	59	0	
10	60	0	
10	61	0	
10	62	0	
10	63	0	
10	64	0	
10	65	0	
10	66	0	
10	67	0	
10	68	0	
10	69	0	
10	70	0	
10	71	0	
10	72	0	
10	73	0	
10	74	0	
10	75	0	
10	76	0	
10	77	0	
10	78	0	
10	79	0	
10	80	0	
10	81	0	
10	82	0	
10	83	0	
10	84	0	
10	85	0	
10	86	0	
10	87	0	
10	88	0	
10	89	0	
10	90	0	
10	91	0	
10	92	0	
10	93	0	
10	94	0	
10	95	0	
10	96	0	
10	97	0	
10	98	0	
10	99	0	
10	100	0	
11	0	0	
11	1	0	
11	2	0	
11	3	0	
11	4	0	
11	5	0	
11	6	0	
11	7	0	
11	8	0	
11	9	0	
11	10	0	
11	11	0	
11	12	0	
11	13	0	
11	14	0	
11	15	0	
11	16	0	
11	17	0	
11	18	0	
11	19	0	
11	20	0	
11	21	0	
11	22	0	
11	23	0	
11	24	0	
11	25	0	
11	26	0	
11	27	0	
11	28	0	
11	29	0	
11	30	0	
11	31	0	
11	32	0	
11	33	0	
11	34	0	
11	35	0	
11	36	0	
11	37	0	
11	38	0	
11	39	0	
11	40	0	
11	41	0	
11	42	0	
11	43	0	
11	44	0	
11	45	0	
11	46	0	
11	47	0	
11	48	0	
11	49	0	
11	50	0	
11	51	0	
11	52	0	
11	53	0	
11	54	0	
11	55	0	
11	56	0	
11	57	0	
11	58	0	
11	59	0	
11	60	0	
11	61	0	
11	62	0	
11	63	0	
11	64	0	
11	65	0	
11	66	0	
11	67	0	
11	68	0	
11	69	0	
11	70	0	
11	71	0	
11	72	0	
11	73	0	
11	74	0	
11	75	0	
11	76	0	
11	77	0	
11	78	0	
11	79	0	
11	80	0	
11	81	0	
11	82	0	
11	83	0	
11	84	0	
11	85	0	
11	86	0	
11	87	0	
11	88	0	
11	89	0	
11	90	0	
11	91	0	
11	92	0	
11	93	0	
11	94	0	
11	95	0	
11	96	0	
11	97	0	
11	98	0	
11	99	0	
11	100	0	
12	0	0	
12	1	0	
12	2	0	
12	3	0	
12	4	0	
12	5	0	
12	6	0	
12	7	0	
12	8	0	
12	9	0	
12	10	0	
12	11	0	
12	12	0	
12	13	0	
[...]
POINT_DATA	30401
VECTORS d float
-4.31363e-018	-7.80004e-018	0	
-2.25316e-007	-2.41101e-007	0	
-3.83813e-007	-3.90017e-007	0	
-5.2277e-007	-5.12585e-007	0	
-6.48805e-007	-6.20039e-007	0	
-7.66455e-007	-7.15744e-007	0	
-8.76684e-007	-8.02694e-007	0	
-9.80437e-007	-8.82581e-007	0	
-1.07826e-006	-9.56675e-007	0	
-1.17056e-006	-1.02592e-006	0	
-1.25768e-006	-1.09107e-006	0	
-1.3399e-006	-1.15274e-006	0	
-1.41746e-006	-1.21142e-006	0	
-1.49058e-006	-1.26755e-006	0	
-1.55949e-006	-1.32147e-006	0	
-1.62436e-006	-1.37351e-006	0	
-1.68542e-006	-1.42392e-006	0	
-1.74285e-006	-1.47294e-006	0	
-1.79684e-006	-1.52076e-006	0	
-1.84756e-006	-1.56755e-006	0	
-1.89519e-006	-1.61344e-006	0	
-1.93991e-006	-1.65854e-006	0	
-1.98189e-006	-1.70295e-006	0	
-2.02129e-006	-1.74675e-006	0	
-2.05825e-006	-1.78997e-006	0	
-2.09293e-006	-1.83268e-006	0	
-2.12545e-006	-1.87488e-006	0	
-2.15596e-006	-1.9166e-006	0	
-2.18458e-006	-1.95783e-006	0	
-2.21141e-006	-1.99855e-006	0	
-2.23655e-006	-2.03874e-006	0	
-2.2601e-006	-2.07836e-006	0	
-2.28213e-006	-2.11737e-006	0	
-2.30271e-006	-2.15571e-006	0	
-2.3219e-006	-2.19332e-006	0	
-2.33972e-006	-2.23016e-006	0	
-2.35621e-006	-2.26615e-006	0	
-2.37141e-006	-2.30123e-006	0	
-2.38532e-006	-2.33532e-006	0	
-2.39793e-006	-2.36835e-006	0	
-2.40924e-006	-2.40024e-006	0	
-2.41922e-006	-2.43092e-006	0	
-2.42785e-006	-2.46033e-006	0	
-2.43509e-006	-2.48837e-006	0	
-2.4409e-006	-2.515e-006	0	
-2.44522e-006	-2.54012e-006	0	
-2.44799e-006	-2.56367e-006	0	
-2.44914e-006	-2.58558e-006	0	
-2.44862e-006	-2.60581e-006	0	
-2.44636e-006	-2.62426e-006	0	
-2.44226e-006	-2.64088e-006	0	
-2.43621e-006	-2.6556e-006	0	
-2.42816e-006	-2.66838e-006	0	
-2.418e-006	-2.67916e-006	0	
-2.40562e-006	-2.68786e-006	0	
-2.3909e-006	-2.69446e-006	0	
-2.37374e-006	-2.6989e-006	0	
-2.35405e-006	-2.70114e-006	0	
-2.33166e-006	-2.70112e-006	0	
-2.30645e-006	-2.69881e-006	0	
-2.2783e-006	-2.69419e-006	0	
-2.24705e-006	-2.68721e-006	0	
-2.21256e-006	-2.67785e-006	0	
-2.17467e-006	-2.66613e-006	0	
-2.13323e-006	-2.65202e-006	0	
-2.08808e-006	-2.63554e-006	0	
-2.03906e-006	-2.6167e-006	0	
-1.98599e-006	-2.59552e-006	0	
-1.92872e-006	-2.57203e-006	0	
-1.86705e-006	-2.54631e-006	0	
-1.80084e-006	-2.51841e-006	0	
-1.72992e-006	-2.48841e-006	0	
-1.65413e-006	-2.45642e-006	0	
-1.57332e-006	-2.42253e-006	0	
-1.48735e-006	-2.3869e-006	0	
-1.39608e-006	-2.34965e-006	0	
-1.29938e-006	-2.31096e-006	0	
-1.19716e-006	-2.27102e-006	0	
-1.08934e-006	-2.23003e-006	0	
-9.75852e-007	-2.18818e-006	0	
-8.56631e-007	-2.14572e-006	0	
-7.31665e-007	-2.1029e-006	0	
-6.00978e-007	-2.06e-006	0	
-4.64612e-007	-2.01728e-006	0	
-3.22637e-007	-1.97501e-006	0	
-1.75156e-007	-1.93352e-006	0	
-2.23331e-008	-1.89311e-006	0	
1.35632e-007	-1.85409e-006	0	
2.98507e-007	-1.81676e-006	0	
4.66003e-007	-1.78145e-006	0	
6.37772e-007	-1.74845e-006	0	
8.13434e-007	-1.71805e-006	0	
9.92554e-007	-1.69053e-006	0	
1.17463e-006	-1.66611e-006	0	
1.35912e-006	-1.64503e-006	0	
1.54542e-006	-1.62742e-006	0	
1.73291e-006	-1.61336e-006	0	
1.92094e-006	-1.60284e-006	0	
2.10891e-006	-1.59572e-006	0	
2.29635e-006	-1.59162e-006	0	
2.48399e-006	-1.58974e-006	0	
-1.24722e-018	-2.7497e-018	0	
-1.66734e-007	-1.38852e-007	0	
-3.27648e-007	-2.75297e-007	0	
-4.73262e-007	-4.01488e-007	0	
-6.04846e-007	-5.12727e-007	0	
-7.2662e-007	-6.13146e-007	0	
-8.40185e-007	-7.04805e-007	0	
-9.46667e-007	-7.89365e-007	0	
-1.04677e-006	-8.68027e-007	0	
-1.14101e-006	-9.41724e-007	0	
-1.22977e-006	-1.0112e-006	0	
-1.3134e-006	-1.07706e-006	0	
-1.39216e-006	-1.1398e-006	0	
-1.46633e-006	-1.19983e-006	0	
-1.53614e-006	-1.25753e-006	0	
-1.6018e-006	-1.31319e-006	0	
-1.66353e-006	-1.36708e-006	0	
-1.72154e-006	-1.41942e-006	0	
-1.77603e-006	-1.47042e-006	0	
-1.82719e-006	-1.52023e-006	0	
-1.87521e-006	-1.56899e-006	0	
-1.92028e-006	-1.61683e-006	0	
-1.96256e-006	-1.66383e-006	0	
-2.00223e-006	-1.71009e-006	0	
-2.03944e-006	-1.75565e-006	0	
-2.07435e-006	-1.80056e-006	0	
-2.10711e-006	-1.84485e-006	0	
-2.13784e-006	-1.88855e-006	0	
-2.16668e-006	-1.93165e-006	0	
-2.19374e-006	-1.97415e-006	0	
-2.21913e-006	-2.01604e-006	0	
-2.24293e-006	-2.05729e-006	0	
-2.26524e-006	-2.09787e-006	0	
-2.28612e-006	-2.13773e-006	0	
-2.30562e-006	-2.17682e-006	0	
-2.32378e-006	-2.2151e-006	0	
-2.34064e-006	-2.25252e-006	0	
-2.35624e-006	-2.289e-006	0	
-2.37057e-006	-2.3245e-006	0	
-2.38365e-006	-2.35894e-006	0	
-2.39544e-006	-2.39227e-006	0	
-2.40594e-006	-2.42441e-006	0	
-2.41511e-006	-2.4553e-006	0	
-2.42292e-006	-2.48488e-006	0	
-2.42933e-006	-2.51308e-006	0	
-2.43429e-006	-2.53983e-006	0	
-2.43772e-006	-2.56507e-006	0	
-2.43956e-006	-2.58874e-006	0	
-2.43976e-006	-2.61078e-006	0	
-2.43823e-006	-2.63114e-006	0	
-2.4349e-006	-2.64975e-006	0	
-2.42966e-006	-2.66655e-006	0	
-2.42241e-006	-2.6815e-006	0	
-2.41309e-006	-2.69455e-006	0	
-2.40157e-006	-2.70563e-006	0	
-2.38774e-006	-2.71471e-006	0	
-2.37149e-006	-2.72174e-006	0	
-2.35272e-006	-2.72668e-006	0	
-2.33128e-006	-2.72949e-006	0	
-2.30703e-006	-2.73014e-006	0	
-2.27983e-006	-2.72861e-006	0	
-2.24957e-006	-2.72487e-006	0	
-2.21606e-006	-2.7189e-006	0	
-2.17916e-006	-2.71069e-006	0	
-2.13871e-006	-2.70025e-006	0	
-2.09454e-006	-2.68759e-006	0	
-2.0465e-006	-2.67271e-006	0	
-1.99439e-006	-2.65566e-006	0	
-1.93806e-006	-2.63645e-006	0	
-1.87732e-006	-2.61516e-006	0	
-1.812e-006	-2.59184e-006	0	
-1.74193e-006	-2.56657e-006	0	
-1.66695e-006	-2.53943e-006	0	
-1.58691e-006	-2.51054e-006	0	
-1.50165e-006	-2.48001e-006	0	
-1.41103e-006	-2.44799e-006	0	
-1.3149e-006	-2.41461e-006	0	
-1.21318e-006	-2.38005e-006	0	
-1.10577e-006	-2.34448e-006	0	
-9.92603e-007	-2.30811e-006	0	
-8.73607e-007	-2.27114e-006	0	
-7.48766e-007	-2.23381e-006	0	
-6.18093e-007	-2.19633e-006	0	
-4.81626e-007	-2.15896e-006	0	
-3.39432e-007	-2.12196e-006	0	
-1.91608e-007	-2.08558e-006	0	
-3.83266e-008	-2.05009e-006	0	
1.2022e-007	-2.01578e-006	0	
2.83804e-007	-1.98291e-006	0	
4.52129e-007	-1.95174e-006	0	
6.24847e-007	-1.92253e-006	0	
8.0157e-007	-1.89554e-006	0	
9.81852e-007	-1.87098e-006	0	
1.16518e-006	-1.84905e-006	0	
1.35099e-006	-1.82993e-006	0	
1.53866e-006	-1.81375e-006	0	
1.72753e-006	-1.80059e-006	0	
1.91694e-006	-1.79045e-006	0	
2.10622e-006	-1.7833e-006	0	
2.29484e-006	-1.77905e-006	0	
2.48265e-006	-1.77739e-006	0	
-7.55359e-019	-2.16165e-018	0	
-1.35873e-007	-1.02902e-007	0	
-2.85864e-007	-2.15325e-007	0	
-4.29674e-007	-3.27532e-007	0	
-5.63271e-007	-4.33601e-007	0	
-6.87626e-007	-5.32667e-007	0	
-8.0372e-007	-6.24956e-007	0	
-9.12489e-007	-7.11223e-007	0	
-1.01461e-006	-7.92214e-007	0	
-1.11062e-006	-8.68609e-007	0	
-1.20094e-006	-9.40996e-007	0	
-1.28592e-006	-1.00988e-006	0	
-1.36587e-006	-1.07571e-006	0	
-1.44107e-006	-1.13884e-006	0	
-1.51178e-006	-1.19962e-006	0	
-1.57823e-006	-1.25832e-006	0	
-1.64066e-006	-1.31519e-006	0	
-1.69928e-006	-1.37044e-006	0	
-1.7543e-006	-1.42426e-006	0	
-1.80593e-006	-1.47681e-006	0	
-1.85437e-006	-1.52822e-006	0	
-1.8998e-006	-1.5786e-006	0	
-1.94241e-006	-1.62807e-006	0	
-1.98237e-006	-1.67668e-006	0	
-2.01986e-006	-1.72451e-006	0	
-2.05503e-006	-1.77161e-006	0	
-2.08803e-006	-1.818e-006	0	
-2.119e-006	-1.86372e-006	0	
-2.14808e-006	-1.90876e-006	0	
-2.17537e-006	-1.95314e-006	0	
-2.20101e-006	-1.99685e-006	0	
-2.22507e-006	-2.03986e-006	0	
-2.24764e-006	-2.08216e-006	0	
-2.2688e-006	-2.1237e-006	0	
-2.2886e-006	-2.16446e-006	0	
-2.30709e-006	-2.20438e-006	0	
-2.32431e-006	-2.24341e-006	0	
-2.34028e-006	-2.28151e-006	0	
-2.35501e-006	-2.31863e-006	0	
-2.3685e-006	-2.35471e-006	0	
-2.38075e-006	-2.38969e-006	0	
-2.39172e-006	-2.42351e-006	0	
-2.4014e-006	-2.45612e-006	0	
-2.40974e-006	-2.48744e-006	0	
-2.41672e-006	-2.51743e-006	0	
-2.42226e-006	-2.54603e-006	0	
-2.4263e-006	-2.57318e-006	0	
-2.42878e-006	-2.59883e-006	0	
-2.42963e-006	-2.62291e-006	0	
-2.4288e-006	-2.64538e-006	0	
-2.42617e-006	-2.66618e-006	0	
-2.42166e-006	-2.68527e-006	0	
-2.41518e-006	-2.70259e-006	0	
-2.40664e-006	-2.7181e-006	0	
-2.39592e-006	-2.73175e-006	0	
-2.38292e-006	-2.7435e-006	0	
-2.36752e-006	-2.7533e-006	0	
-2.34962e-006	-2.76111e-006	0	
-2.32906e-006	-2.7669e-006	0	
-2.3057e-006	-2.77066e-006	0	
-2.27941e-006	-2.77235e-006	0	
-2.25006e-006	-2.77197e-006	0	
-2.21748e-006	-2.76948e-006	0	
-2.18152e-006	-2.76489e-006	0	
-2.142e-006	-2.75818e-006	0	
-2.09878e-006	-2.74937e-006	0	
-2.05166e-006	-2.73849e-006	0	
-2.00046e-006	-2.72554e-006	0	
-1.94503e-006	-2.71058e-006	0	
-1.88517e-006	-2.69365e-006	0	
-1.82071e-006	-2.67481e-006	0	
-1.75147e-006	-2.65413e-006	0	
-1.67728e-006	-2.63168e-006	0	
-1.59799e-006	-2.60757e-006	0	
-1.51342e-006	-2.5819e-006	0	
-1.42344e-006	-2.5548e-006	0	
-1.3279e-006	-2.52642e-006	0	
-1.2267e-006	-2.49688e-006	0	
-1.11973e-006	-2.46636e-006	0	
-1.00692e-006	-2.43504e-006	0	
-8.88196e-007	-2.4031e-006	0	
-7.63545e-007	-2.37074e-006	0	
-6.32968e-007	-2.33818e-006	0	
-4.96488e-007	-2.30562e-006	0	
-3.54176e-007	-2.27331e-006	0	
-2.06136e-007	-2.24146e-006	0	
-5.25278e-008	-2.21033e-006	0	
1.06452e-007	-2.18013e-006	0	
2.70577e-007	-2.15112e-006	0	
4.3955e-007	-2.12353e-006	0	
6.13024e-007	-2.09759e-006	0	
7.90599e-007	-2.07349e-006	0	
9.71823e-007	-2.05146e-006	0	
1.15618e-006	-2.03166e-006	0	
1.34309e-006	-2.01425e-006	0	
1.53191e-006	-1.99937e-006	0	
1.72199e-006	-1.98709e-006	0	
1.91262e-006	-1.97751e-006	0	
2.10311e-006	-1.97063e-006	0	
2.29282e-006	-1.96641e-006	0	
2.48109e-006	-1.96461e-006	0	
-7.15542e-019	-1.92345e-018	0	
-1.23584e-007	-8.8264e-008	0	
-2.5969e-007	-1.82772e-007	0	
-3.96453e-007	-2.80645e-007	0	
-5.28058e-007	-3.77918e-007	0	
-6.52491e-007	-4.72011e-007	0	
-7.69588e-007	-5.61931e-007	0	
-8.79677e-007	-6.47505e-007	0	
-9.83189e-007	-7.28898e-007	0	
-1.08054e-006	-8.06421e-007	0	
-1.17211e-006	-8.8043e-007	0	
-1.25823e-006	-9.51273e-007	0	
-1.33922e-006	-1.01928e-006	0	
-1.41535e-006	-1.08476e-006	0	
-1.48688e-006	-1.14796e-006	0	
-1.55407e-006	-1.20915e-006	0	
-1.61715e-006	-1.26853e-006	0	
-1.67635e-006	-1.32629e-006	0	
-1.73188e-006	-1.3826e-006	0	
-1.78396e-006	-1.4376e-006	0	
-1.8328e-006	-1.49144e-006	0	
-1.87859e-006	-1.5442e-006	0	
-1.92152e-006	-1.59598e-006	0	
-1.96178e-006	-1.64686e-006	0	
-1.99954e-006	-1.6969e-006	0	
-2.03496e-006	-1.74615e-006	0	
-2.06819e-006	-1.79465e-006	0	
-2.0994e-006	-1.84242e-006	0	
-2.1287e-006	-1.88946e-006	0	
-2.15622e-006	-1.9358e-006	0	
-2.18209e-006	-1.98143e-006	0	
-2.20639e-006	-2.02633e-006	0	
-2.22922e-006	-2.07048e-006	0	
-2.25064e-006	-2.11385e-006	0	
-2.27072e-006	-2.15642e-006	0	
-2.28952e-006	-2.19815e-006	0	
-2.30706e-006	-2.23899e-006	0	
-2.32337e-006	-2.2789e-006	0	
-2.33846e-006	-2.31783e-006	0	
-2.35234e-006	-2.35574e-006	0	
-2.365e-006	-2.39257e-006	0	
-2.37641e-006	-2.42827e-006	0	
-2.38655e-006	-2.46279e-006	0	
-2.39539e-006	-2.49607e-006	0	
-2.40288e-006	-2.52806e-006	0	
-2.40896e-006	-2.55872e-006	0	
-2.41356e-006	-2.58798e-006	0	
-2.41662e-006	-2.6158e-006	0	
-2.41809e-006	-2.64213e-006	0	
-2.41788e-006	-2.66691e-006	0	
-2.41592e-006	-2.6901e-006	0	
-2.41209e-006	-2.71166e-006	0	
-2.40632e-006	-2.73153e-006	0	
-2.3985e-006	-2.74966e-006	0	
-2.38854e-006	-2.76604e-006	0	
-2.37631e-006	-2.78061e-006	0	
-2.36171e-006	-2.79334e-006	0	
-2.34461e-006	-2.80418e-006	0	
-2.32487e-006	-2.81312e-006	0	
-2.30235e-006	-2.82012e-006	0	
-2.27693e-006	-2.82515e-006	0	
-2.24845e-006	-2.82821e-006	0	
-2.21676e-006	-2.82929e-006	0	
-2.18169e-006	-2.82837e-006	0	
-2.14307e-006	-2.82545e-006	0	
-2.10075e-006	-2.82053e-006	0	
-2.05452e-006	-2.81364e-006	0	
-2.00422e-006	-2.80479e-006	0	
-1.94967e-006	-2.79403e-006	0	
-1.89068e-006	-2.78139e-006	0	
-1.82706e-006	-2.76692e-006	0	
-1.75865e-006	-2.75069e-006	0	
-1.68526e-006	-2.73277e-006	0	
-1.60671e-006	-2.71324e-006	0	
-1.52286e-006	-2.6922e-006	0	
-1.43354e-006	-2.66978e-006	0	
-1.33862e-006	-2.64608e-006	0	
-1.23798e-006	-2.62125e-006	0	
-1.13151e-006	-2.59542e-006	0	
-1.01911e-006	-2.56876e-006	0	
-9.00744e-007	-2.54143e-006	0	
-7.76365e-007	-2.51361e-006	0	
-6.45971e-007	-2.4855e-006	0	
-5.0959e-007	-2.45728e-006	0	
-3.67282e-007	-2.42916e-006	0	
-2.19156e-007	-2.40134e-006	0	
-6.53578e-008	-2.37403e-006	0	
9.39151e-008	-2.34745e-006	0	
2.58425e-007	-2.3218e-006	0	
4.27887e-007	-2.29731e-006	0	
6.01942e-007	-2.27417e-006	0	
7.80192e-007	-2.25256e-006	0	
9.62186e-007	-2.23268e-006	0	
1.1474e-006	-2.21471e-006	0	
1.33526e-006	-2.19878e-006	0	
1.5251e-006	-2.18504e-006	0	
1.71628e-006	-2.1736e-006	0	
1.90806e-006	-2.16456e-006	0	
2.09971e-006	-2.15799e-006	0	
2.29044e-006	-2.15387e-006	0	
2.47937e-006	-2.15206e-006	0	
-6.99712e-019	-1.75129e-018	0	
-1.16698e-007	-7.96396e-008	0	
-2.43229e-007	-1.63351e-007	0	
-3.72743e-007	-2.50606e-007	0	
-5.0013e-007	-3.39285e-007	0	
-6.22652e-007	-4.27314e-007	0	
-7.39207e-007	-5.13354e-007	0	
-8.49498e-007	-5.96712e-007	0	
-9.5359e-007	-6.77119e-007	0	
-1.0517e-006	-7.54554e-007	0	
-1.14408e-006	-8.29129e-007	0	
-1.23103e-006	-9.01021e-007	0	
-1.3128e-006	-9.70431e-007	0	
-1.38967e-006	-1.03756e-006	0	
-1.46187e-006	-1.10262e-006	0	
-1.52968e-006	-1.16579e-006	0	
-1.59331e-006	-1.22725e-006	0	
-1.653e-006	-1.28715e-006	0	
-1.70899e-006	-1.34565e-006	0	
-1.76147e-006	-1.40286e-006	0	
-1.81066e-006	-1.4589e-006	0	
-1.85676e-006	-1.51387e-006	0	
-1.89999e-006	-1.56784e-006	0	
-1.94051e-006	-1.6209e-006	0	
-1.97851e-006	-1.67309e-006	0	
-2.01415e-006	-1.72447e-006	0	
-2.04759e-006	-1.77506e-006	0	
-2.079e-006	-1.82491e-006	0	
-2.1085e-006	-1.87401e-006	0	
-2.13623e-006	-1.92237e-006	0	
-2.16229e-006	-1.97001e-006	0	
-2.18681e-006	-2.01689e-006	0	
-2.20985e-006	-2.06302e-006	0	
-2.23151e-006	-2.10836e-006	0	
-2.25185e-006	-2.1529e-006	0	
-2.27091e-006	-2.19659e-006	0	
-2.28874e-006	-2.2394e-006	0	
-2.30536e-006	-2.28128e-006	0	
-2.32078e-006	-2.3222e-006	0	
-2.33501e-006	-2.36212e-006	0	
-2.34805e-006	-2.40099e-006	0	
-2.35986e-006	-2.43875e-006	0	
-2.37042e-006	-2.47537e-006	0	
-2.37971e-006	-2.51079e-006	0	
-2.38766e-006	-2.54497e-006	0	
-2.39423e-006	-2.57787e-006	0	
-2.39934e-006	-2.60942e-006	0	
-2.40295e-006	-2.63959e-006	0	
-2.40497e-006	-2.66834e-006	0	
-2.40536e-006	-2.69561e-006	0	
-2.404e-006	-2.72136e-006	0	
-2.4008e-006	-2.74555e-006	0	
-2.39569e-006	-2.76814e-006	0	
-2.38855e-006	-2.78908e-006	0	
-2.37928e-006	-2.80834e-006	0	
-2.36778e-006	-2.82588e-006	0	
-2.35391e-006	-2.84167e-006	0	
-2.33757e-006	-2.85568e-006	0	
-2.31862e-006	-2.86788e-006	0	
-2.29691e-006	-2.87822e-006	0	
-2.27231e-006	-2.88671e-006	0	
-2.24467e-006	-2.89331e-006	0	
-2.21383e-006	-2.89802e-006	0	
-2.17963e-006	-2.90082e-006	0	
-2.14188e-006	-2.90172e-006	0	
-2.10043e-006	-2.90072e-006	0	
-2.05509e-006	-2.89782e-006	0	
-2.00568e-006	-2.89305e-006	0	
-1.95201e-006	-2.88643e-006	0	
-1.89389e-006	-2.878e-006	0	
-1.83113e-006	-2.86781e-006	0	
-1.76355e-006	-2.8559e-006	0	
-1.69098e-006	-2.84235e-006	0	
-1.61323e-006	-2.82722e-006	0	
-1.53014e-006	-2.81061e-006	0	
-1.44154e-006	-2.79262e-006	0	
-1.34729e-006	-2.77335e-006	0	
-1.24727e-006	-2.75291e-006	0	
-1.14137e-006	-2.73145e-006	0	
-1.02949e-006	-2.7091e-006	0	
-9.1156e-007	-2.68602e-006	0	
-7.8755e-007	-2.66235e-006	0	
-6.57447e-007	-2.63827e-006	0	
-5.21277e-007	-2.61396e-006	0	
-3.79104e-007	-2.58959e-006	0	
-2.31021e-007	-2.56535e-006	0	
-7.71743e-008	-2.54143e-006	0	
8.22437e-008	-2.51803e-006	0	
2.46997e-007	-2.49532e-006	0	
4.16796e-007	-2.47351e-006	0	
5.91285e-007	-2.45277e-006	0	
7.70071e-007	-2.4333e-006	0	
9.52701e-007	-2.41526e-006	0	
1.13866e-006	-2.39883e-006	0	
1.32735e-006	-2.38416e-006	0	
1.51814e-006	-2.3714e-006	0	
1.71036e-006	-2.36069e-006	0	
1.90327e-006	-2.35214e-006	0	
2.09607e-006	-2.34584e-006	0	
2.28789e-006	-2.34182e-006	0	
2.47772e-006	-2.34006e-006	0	
-6.89107e-019	-1.64178e-018	0	
-1.12663e-007	-7.4137e-008	0	
-2.32689e-007	-1.50943e-007	0	
-3.55954e-007	-2.30662e-007	0	
-4.78668e-007	-3.12357e-007	0	
-5.9822e-007	-3.94694e-007	0	
-7.13113e-007	-4.76494e-007	0	
-8.22632e-007	-5.56941e-007	0	
-9.26517e-007	-6.35553e-007	0	
-1.02476e-006	-7.12086e-007	0	
-1.11747e-006	-7.86462e-007	0	
-1.20484e-006	-8.58699e-007	0	
-1.28709e-006	-9.28876e-007	0	
-1.36444e-006	-9.97107e-007	0	
-1.43712e-006	-1.06352e-006	0	
-1.50537e-006	-1.12824e-006	0	
-1.56941e-006	-1.19141e-006	0	
-1.62948e-006	-1.25314e-006	0	
-1.68581e-006	-1.31355e-006	0	
-1.7386e-006	-1.37274e-006	0	
-1.78807e-006	-1.4308e-006	0	
-1.83444e-006	-1.48782e-006	0	
-1.87788e-006	-1.54387e-006	0	
-1.91861e-006	-1.59902e-006	0	
-1.95679e-006	-1.6533e-006	0	
-1.9926e-006	-1.70678e-006	0	
-2.02621e-006	-1.75947e-006	0	
-2.05778e-006	-1.8114e-006	0	
-2.08743e-006	-1.8626e-006	0	
-2.11531e-006	-1.91306e-006	0	
-2.14154e-006	-1.96277e-006	0	
-2.16623e-006	-2.01175e-006	0	
-2.18945e-006	-2.05996e-006	0	
-2.21131e-006	-2.1074e-006	0	
-2.23186e-006	-2.15402e-006	0	
-2.25115e-006	-2.19982e-006	0	
-2.26923e-006	-2.24474e-006	0	
-2.28612e-006	-2.28876e-006	0	
-2.30184e-006	-2.33183e-006	0	
-2.31639e-006	-2.37392e-006	0	
-2.32975e-006	-2.41499e-006	0	
-2.34192e-006	-2.45498e-006	0	
-2.35287e-006	-2.49387e-006	0	
-2.36255e-006	-2.5316e-006	0	
-2.37093e-006	-2.56814e-006	0	
-2.37794e-006	-2.60344e-006	0	
-2.38352e-006	-2.63746e-006	0	
-2.38762e-006	-2.67015e-006	0	
-2.39016e-006	-2.70147e-006	0	
-2.39108e-006	-2.73138e-006	0	
-2.39028e-006	-2.75985e-006	0	
-2.38767e-006	-2.78683e-006	0	
-2.38316e-006	-2.81229e-006	0	
-2.37665e-006	-2.83618e-006	0	
-2.36803e-006	-2.85847e-006	0	
-2.3572e-006	-2.87912e-006	0	
-2.34405e-006	-2.8981e-006	0	
-2.32843e-006	-2.91538e-006	0	
-2.31022e-006	-2.93093e-006	0	
-2.28929e-006	-2.94473e-006	0	
-2.26549e-006	-2.95674e-006	0	
-2.23867e-006	-2.96697e-006	0	
-2.20866e-006	-2.97538e-006	0	
-2.17529e-006	-2.98195e-006	0	
-2.13842e-006	-2.98669e-006	0	
-2.09785e-006	-2.98961e-006	0	
-2.05339e-006	-2.99069e-006	0	
-2.00487e-006	-2.98996e-006	0	
-1.95209e-006	-2.98744e-006	0	
-1.89487e-006	-2.98315e-006	0	
-1.833e-006	-2.97714e-006	0	
-1.7663e-006	-2.96944e-006	0	
-1.69459e-006	-2.96011e-006	0	
-1.61769e-006	-2.94922e-006	0	
-1.53542e-006	-2.93684e-006	0	
-1.44761e-006	-2.92305e-006	0	
-1.35411e-006	-2.90796e-006	0	
-1.2548e-006	-2.89167e-006	0	
-1.14956e-006	-2.87428e-006	0	
-1.03829e-006	-2.85593e-006	0	
-9.20913e-007	-2.83676e-006	0	
-7.97387e-007	-2.81689e-006	0	
-6.67699e-007	-2.7965e-006	0	
-5.31869e-007	-2.77571e-006	0	
-3.89957e-007	-2.75471e-006	0	
-2.42048e-007	-2.73366e-006	0	
-8.82912e-008	-2.71274e-006	0	
7.11274e-008	-2.69212e-006	0	
2.35982e-007	-2.67198e-006	0	
4.05979e-007	-2.65248e-006	0	
5.8078e-007	-2.63382e-006	0	
7.59984e-007	-2.61617e-006	0	
9.43142e-007	-2.5997e-006	0	
1.12974e-006	-2.58457e-006	0	
1.31921e-006	-2.57096e-006	0	
1.5109e-006	-2.55902e-006	0	
1.70414e-006	-2.54889e-006	0	
1.89817e-006	-2.54074e-006	0	
2.09219e-006	-2.53466e-006	0	
2.28526e-006	-2.53074e-006	0	
2.47631e-006	-2.52906e-006	0	
-6.82961e-019	-1.56668e-018	0	
-1.10133e-007	-7.03915e-008	0	
-2.25661e-007	-1.42583e-007	0	
-3.43973e-007	-2.17034e-007	0	
-4.62355e-007	-2.93421e-007	0	
-5.78604e-007	-3.70972e-007	0	
-6.91213e-007	-4.48832e-007	0	
-7.9927e-007	-5.2627e-007	0	
-9.02299e-007	-6.02755e-007	0	
-1.00011e-006	-6.77942e-007	0	
-1.09267e-006	-7.51632e-007	0	
-1.18007e-006	-8.23729e-007	0	
-1.26245e-006	-8.9421e-007	0	
-1.33999e-006	-9.63108e-007	0	
-1.41291e-006	-1.03049e-006	0	
-1.4814e-006	-1.09642e-006	0	
-1.54568e-006	-1.16098e-006	0	
-1.60598e-006	-1.22426e-006	0	
-1.66252e-006	-1.28635e-006	0	
-1.71551e-006	-1.34732e-006	0	
-1.76516e-006	-1.40724e-006	0	
-1.81168e-006	-1.46618e-006	0	
-1.85526e-006	-1.52421e-006	0	
-1.89611e-006	-1.58137e-006	0	
-1.93441e-006	-1.63771e-006	0	
-1.97032e-006	-1.69325e-006	0	
-2.00403e-006	-1.74804e-006	0	
-2.03569e-006	-1.80209e-006	0	
-2.06545e-006	-1.85542e-006	0	
-2.09343e-006	-1.90801e-006	0	
-2.11977e-006	-1.95989e-006	0	
-2.14457e-006	-2.01104e-006	0	
-2.16793e-006	-2.06144e-006	0	
-2.18994e-006	-2.11107e-006	0	
-2.21065e-006	-2.15991e-006	0	
-2.23013e-006	-2.20794e-006	0	
-2.24842e-006	-2.25511e-006	0	
-2.26554e-006	-2.3014e-006	0	
-2.28152e-006	-2.34677e-006	0	
-2.29633e-006	-2.39119e-006	0	
-2.30999e-006	-2.43461e-006	0	
-2.32247e-006	-2.47699e-006	0	
-2.33376e-006	-2.5183e-006	0	
-2.3438e-006	-2.5585e-006	0	
-2.35255e-006	-2.59755e-006	0	