# vtk DataFile Version 4.1
vtk output
ASCII
DATASET UNSTRUCTURED_GRID

POINTS	30401	float
0	0	0	
0	1	0	
0	2	0	
0	3	0	
0	4	0	
0	5	0	
0	6	0	
0	7	0	
0	8	0	
0	9	0	
0	10	0	
0	11	0	
0	12	0	
0	13	0	
0	14	0	
0	15	0	
0	16	0	
0	17	0	
0	18	0	
0	19	0	
0	20	0	
0	21	0	
0	22	0	
0	23	0	
0	24	0	
0	25	0	
0	26	0	
0	27	0	
0	28	0	
0	29	0	
0	30	0	
0	31	0	
0	32	0	
0	33	0	
0	34	0	
0	35	0	
0	36	0	
0	37	0	
0	38	0	
0	39	0	
0	40	0	
0	41	0	
0	42	0	
0	43	0	
0	44	0	
0	45	0	
0	46	0	
0	47	0	
0	48	0	
0	49	0	
0	50	0	
0	51	0	
0	52	0	
0	53	0	
0	54	0	
0	55	0	
0	56	0	
0	57	0	
0	58	0	
0	59	0	
0	60	0	
0	61	0	
0	62	0	
0	63	0	
0	64	0	
0	65	0	
0	66	0	
0	67	0	
0	68	0	
0	69	0	
0	70	0	
0	71	0	
0	72	0	
0	73	0	
0	74	0	
0	75	0	
0	76	0	
0	77	0	
0	78	0	
0	79	0	
0	80	0	
0	81	0	
0	82	0	
0	83	0	
0	84	0	
0	85	0	
0	86	0	
0	87	0	
0	88	0	
0	89	0	
0	90	0	
0	91	0	
0	92	0	
0	93	0	
0	94	0	
0	95	0	
0	96	0	
0	97	0	
0	98	0	
0	99	0	
0	100	0	
1	0	0	
1	1	0	
1	2	0	
1	3	0	
1	4	0	
1	5	0	
1	6	0	
1	7	0	
1	8	0	
1	9	0	
1	10	0	
1	11	0	
1	12	0	
1	13	0	
1	14	0	
1	15	0	
1	16	0	
1	17	0	
1	18	0	
1	19	0	
1	20	0	
1	21	0	
1	22	0	
1	23	0	
1	24	0	
1	25	0	
1	26	0	
1	27	0	
1	28	0	
1	29	0	
1	30	0	
1	31	0	
1	32	0	
1	33	0	
1	34	0	
1	35	0	
1	36	0	
1	37	0	
1	38	0	
1	39	0	
1	40	0	
1	41	0	
1	42	0	
1	43	0	
1	44	0	
1	45	0	
1	46	0	
1	47	0	
1	48	0	
1	49	0	
1	50	0	
1	51	0	
1	52	0	
1	53	0	
1	54	0	
1	55	0	
1	56	0	
1	57	0	
1	58	0	
1	59	0	
1	60	0	
1	61	0	
1	62	0	
1	63	0	
1	64	0	
1	65	0	
1	66	0	
1	67	0	
1	68	0	
1	69	0	
1	70	0	
1	71	0	
1	72	0	
1	73	0	
1	74	0	
1	75	0	
1	76	0	
1	77	0	
1	78	0	
1	79	0	
1	80	0	
1	81	0	
1	82	0	
1	83	0	
1	84	0	
1	85	0	
1	86	0	
1	87	0	
1	88	0	
1	89	0	
1	90	0	
1	91	0	
1	92	0	
1	93	0	
1	94	0	
1	95	0	
1	96	0	
1	97	0	
1	98	0	
1	99	0	
1	100	0	
2	0	0	
2	1	0	
2	2	0	
2	3	0	
2	4	0	
2	5	0	
2	6	0	
2	7	0	
2	8	0	
2	9	0	
2	10	0	
2	11	0	
2	12	0	
2	13	0	
2	14	0	
2	15	0	
2	16	0	
2	17	0	
2	18	0	
2	19	0	
2	20	0	
2	21	0	
2	22	0	
2	23	0	
2	24	0	
2	25	0	
2	26	0	
2	27	0	
2	28	0	
2	29	0	
2	30	0	
2	31	0	
2	32	0	
2	33	0	
2	34	0	
2	35	0	
2	36	0	
2	37	0	
2	38	0	
2	39	0	
2	40	0	
2	41	0	
2	42	0	
2	43	0	
2	44	0	
2	45	0	
2	46	0	
2	47	0	
2	48	0	
2	49	0	
2	50	0	
2	51	0	
2	52	0	
2	53	0	
2	54	0	
2	55	0	
2	56	0	
2	57	0	
2	58	0	
2	59	0	
2	60	0	
2	61	0	
2	62	0	
2	63	0	
2	64	0	
2	65	0	
2	66	0	
2	67	0	
2	68	0	
2	69	0	
2	70	0	
2	71	0	
2	72	0	
2	73	0	
2	74	0	
2	75	0	
2	76	0	
2	77	0	
2	78	0	
2	79	0	
2	80	0	
2	81	0	
2	82	0	
2	83	0	
2	84	0	
2	85	0	
2	86	0	
2	87	0	
2	88	0	
2	89	0	
2	90	0	
2	91	0	
2	92	0	
2	93	0	
2	94	0	
2	95	0	
2	96	0	
2	97	0	
2	98	0	
2	99	0	
2	100	0	
3	0	0	
3	1	0	
3	2	0	
3	3	0	
3	4	0	
3	5	0	
3	6	0	
3	7	0	
3	8	0	
3	9	0	
3	10	0	
3	11	0	
3	12	0	
3	13	0	
3	14	0	
3	15	0	
3	16	0	
3	17	0	
3	18	0	
3	19	0	
3	20	0	
3	21	0	
3	22	0	
3	23	0	
3	24	0	
3	25	0	
3	26	0	
3	27	0	
3	28	0	
3	29	0	
3	30	0	
3	31	0	
3	32	0	
3	33	0	
3	34	0	
3	35	0	
3	36	0	
3	37	0	
3	38	0	
3	39	0	
3	40	0	
3	41	0	
3	42	0	
3	43	0	
3	44	0	
3	45	0	
3	46	0	
3	47	0	
3	48	0	
3	49	0	
3	50	0	
3	51	0	
3	52	0	
3	53	0	
3	54	0	
3	55	0	
3	56	0	
3	57	0	
3	58	0	
3	59	0	
3	60	0	
3	61	0	
3	62	0	
3	63	0	
3	64	0	
3	65	0	
3	66	0	
3	67	0	
3	68	0	
3	69	0	
3	70	0	
3	71	0	
3	72	0	
3	73	0	
3	74	0	
3	75	0	
3	76	0	
3	77	0	
3	78	0	
3	79	0	
3	80	0	
3	81	0	
3	82	0	
3	83	0	
3	84	0	
3	85	0	
3	86	0	
3	87	0	
3	88	0	
3	89	0	
3	90	0	
3	91	0	
3	92	0	
3	93	0	
3	94	0	
3	95	0	
3	96	0	
3	97	0	
3	98	0	
3	99	0	
3	100	0	
4	0	0	
4	1	0	
4	2	0	
4	3	0	
4	4	0	
4	5	0	
4	6	0	
4	7	0	
4	8	0	
4	9	0	
4	10	0	
4	11	0	
4	12	0	
4	13	0	
4	14	0	
4	15	0	
4	16	0	
4	17	0	
4	18	0	
4	19	0	
4	20	0	
4	21	0	
4	22	0	
4	23	0	
4	24	0	
4	25	0	
4	26	0	
4	27	0	
4	28	0	
4	29	0	
4	30	0	
4	31	0	
4	32	0	
4	33	0	
4	34	0	
4	35	0	
4	36	0	
4	37	0	
4	38	0	
4	39	0	
4	40	0	
4	41	0	
4	42	0	
4	43	0	
4	44	0	
4	45	0	
4	46	0	
4	47	0	
4	48	0	
4	49	0	
4	50	0	
4	51	0	
4	52	0	
4	53	0	
4	54	0	
4	55	0	
4	56	0	
4	57	0	
4	58	0	
4	59	0	
4	60	0	
4	61	0	
4	62	0	
4	63	0	
4	64	0	
4	65	0	
4	66	0	
4	67	0	
4	68	0	
4	69	0	
4	70	0	
4	71	0	
4	72	0	
4	73	0	
4	74	0	
4	75	0	
4	76	0	
4	77	0	
4	78	0	
4	79	0	
4	80	0	
4	81	0	
4	82	0	
4	83	0	
4	84	0	
4	85	0	
4	86	0	
4	87	0	
4	88	0	
4	89	0	
4	90	0	
4	91	0	
4	92	0	
4	93	0	
4	94	0	
4	95	0	
4	96	0	
4	97	0	
4	98	0	
4	99	0	
4	100	0	
5	0	0	
5	1	0	
5	2	0	
5	3	0	
5	4	0	
5	5	0	
5	6	0	
5	7	0	
5	8	0	
5	9	0	
5	10	0	
5	11	0	
5	12	0	
5	13	0	
5	14	0	
5	15	0	
5	16	0	
5	17	0	
5	18	0	
5	19	0	
5	20	0	
5	21	0	
5	22	0	
5	23	0	
5	24	0	
5	25	0	
5	26	0	
5	27	0	
5	28	0	
5	29	0	
5	30	0	
5	31	0	
5	32	0	
5	33	0	
5	34	0	
5	35	0	
5	36	0	
5	37	0	
5	38	0	
5	39	0	
5	40	0	
5	41	0	
5	42	0	
5	43	0	
5	44	0	
5	45	0	
5	46	0	
5	47	0	
5	48	0	
5	49	0	
5	50	0	
5	51	0	
5	52	0	
5	53	0	
5	54	0	
5	55	0	
5	56	0	
5	57	0	
5	58	0	
5	59	0	
5	60	0	
5	61	0	
5	62	0	
5	63	0	
5	64	0	
5	65	0	
5	66	0	
5	67	0	
5	68	0	
5	69	0	
5	70	0	
5	71	0	
5	72	0	
5	73	0	
5	74	0	
5	75	0	
5	76	0	
5	77	0	
5	78	0	
5	79	0	
5	80	0	
5	81	0	
5	82	0	
5	83	0	
5	84	0	
5	85	0	
5	86	0	
5	87	0	
5	88	0	
5	89	0	
5	90	0	
5	91	0	
5	92	0	
5	93	0	
5	94	0	
5	95	0	
5	96	0	
5	97	0	
5	98	0	
5	99	0	
5	100	0	
6	0	0	
6	1	0	
6	2	0	
6	3	0	
6	4	0	
6	5	0	
6	6	0	
6	7	0	
6	8	0	
6	9	0	
6	10	0	
6	11	0	
6	12	0	
6	13	0	
6	14	0	
6	15	0	
6	16	0	
6	17	0	
6	18	0	
6	19	0	
6	20	0	
6	21	0	
6	22	0	
6	23	0	
6	24	0	
6	25	0	
6	26	0	
6	27	0	
6	28	0	
6	29	0	
6	30	0	
6	31	0	
6	32	0	
6	33	0	
6	34	0	
6	35	0	
6	36	0	
6	37	0	
6	38	0	
6	39	0	
6	40	0	
6	41	0	
6	42	0	
6	43	0	
6	44	0	
6	45	0	
6	46	0	
6	47	0	
6	48	0	
6	49	0	
6	50	0	
6	51	0	
6	52	0	
6	53	0	
6	54	0	
6	55	0	
6	56	0	
6	57	0	
6	58	0	
6	59	0	
6	60	0	
6	61	0	
6	62	0	
6	63	0	
6	64	0	
6	65	0	
6	66	0	
6	67	0	
6	68	0	
6	69	0	
6	70	0	
6	71	0	
6	72	0	
6	73	0	
6	74	0	
6	75	0	
6	76	0	
6	77	0	
6	78	0	
6	79	0	
6	80	0	
6	81	0	
6	82	0	
6	83	0	
6	84	0	
6	85	0	
6	86	0	
6	87	0	
6	88	0	
6	89	0	
6	90	0	
6	91	0	
6	92	0	
6	93	0	
6	94	0	
6	95	0	
6	96	0	
6	97	0	
6	98	0	
6	99	0	
6	100	0	
7	0	0	
7	1	0	
7	2	0	
7	3	0	
7	4	0	
7	5	0	
7	6	0	
7	7	0	
7	8	0	
7	9	0	
7	10	0	
7	11	0	
7	12	0	
7	13	0	
7	14	0	
7	15	0	
7	16	0	
7	17	0	
7	18	0	
7	19	0	
7	20	0	
7	21	0	
7	22	0	
7	23	0	
7	24	0	
7	25	0	
7	26	0	
7	27	0	
7	28	0	
7	29	0	
7	30	0	
7	31	0	
7	32	0	
7	33	0	
7	34	0	
7	35	0	
7	36	0	
7	37	0	
7	38	0	
7	39	0	
7	40	0	
7	41	0	
7	42	0	
7	43	0	
7	44	0	
7	45	0	
7	46	0	
7	47	0	
7	48	0	
7	49	0	
7	50	0	
7	51	0	
7	52	0	
7	53	0	
7	54	0	
7	55	0	
7	56	0	
7	57	0	
7	58	0	
7	59	0	
7	60	0	
7	61	0	
7	62	0	
7	63	0	
7	64	0	
7	65	0	
7	66	0	
7	67	0	
7	68	0	
7	69	0	
7	70	0	
7	71	0	
7	72	0	
7	73	0	
7	74	0	
7	75	0	
7	76	0	
7	77	0	
7	78	0	
7	79	0	
7	80	0	
7	81	0	
7	82	0	
7	83	0	
7	84	0	
7	85	0	
7	86	0	
7	87	0	
7	88	0	
7	89	0	
7	90	0	
7	91	0	
7	92	0	
7	93	0	
7	94	0	
7	95	0	
7	96	0	
7	97	0	
7	98	0	
7	99	0	
7	100	0	
8	0	0	
8	1	0	
8	2	0	
8	3	0	
8	4	0	
8	5	0	
8	6	0	
8	7	0	
8	8	0	
8	9	0	
8	10	0	
8	11	0	
8	12	0	
8	13	0	
8	14	0	
8	15	0	
8	16	0	
8	17	0	
8	18	0	
8	19	0	
8	20	0	
8	21	0	
8	22	0	
8	23	0	
8	24	0	
8	25	0	
8	26	0	
8	27	0	
8	28	0	
8	29	0	
8	30	0	
8	31	0	
8	32	0	
8	33	0	
8	34	0	
8	35	0	
8	36	0	
8	37	0	
8	38	0	
8	39	0	
8	40	0	
8	41	0	
8	42	0	
8	43	0	
8	44	0	
8	45	0	
8	46	0	
8	47	0	
8	48	0	
8	49	0	
8	50	0	
8	51	0	
8	52	0	
8	53	0	
8	54	0	
8	55	0	
8	56	0	
8	57	0	
8	58	0	
8	59	0	
8	60	0	
8	61	0	
8	62	0	
8	63	0	
8	64	0	
8	65	0	
8	66	0	
8	67	0	
8	68	0	
8	69	0	
8	70	0	
8	71	0	
8	72	0	
8	73	0	
8	74	0	
8	75	0	
8	76	0	
8	77	0	
8	78	0	
8	79	0	
8	80	0	
8	81	0	
8	82	0	
8	83	0	
8	84	0	
8	85	0	
8	86	0	
8	87	0	
8	88	0	
8	89	0	
8	90	0	
8	91	0	
8	92	0	
8	93	0	
8	94	0	
8	95	0	
8	96	0	
8	97	0	
8	98	0	
8	99	0	
8	100	0	
9	0	0	
9	1	0	
9	2	0	
9	3	0	
9	4	0	
9	5	0	
9	6	0	
9	7	0	
9	8	0	
9	9	0	
9	10	0	
9	11	0	
9	12	0	
9	13	0	
9	14	0	
9	15	0	
9	16	0	
9	17	0	
9	18	0	
9	19	0	
9	20	0	
9	21	0	
9	22	0	
9	23	0	
9	24	0	
9	25	0	
9	26	0	
9	27	0	
9	28	0	
9	29	0	
9	30	0	
9	31	0	
9	32	0	
9	33	0	
9	34	0	
9	35	0	
9	36	0	
9	37	0	
9	38	0	
9	39	0	
9	40	0	
9	41	0	
9	42	0	
9	43	0	
9	44	0	
9	45	0	
9	46	0	
9	47	0	
9	48	0	
9	49	0	
9	50	0	
9	51	0	
9	52	0	
9	53	0	
9	54	0	
9	55	0	
9	56	0	
9	57	0	
9	58	0	
9	59	0	
9	60	0	
9	61	0	
9	62	0	
9	63	0	
9	64	0	
9	65	0	
9	66	0	
9	67	0	
9	68	0	
9	69	0	
9	70	0	
9	71	0	
9	72	0	
9	73	0	
9	74	0	
9	75	0	
9	76	0	
9	77	0	
9	78	0	
9	79	0	
9	80	0	
9	81	0	
9	82	0	
9	83	0	
9	84	0	
9	85	0	
9	86	0	
9	87	0	
9	88	0	
9	89	0	
9	90	0	
9	91	0	
9	92	0	
9	93	0	
9	94	0	
9	95	0	
9	96	0	
9	97	0	
9	98	0	
9	99	0	
9	100	0	
10	0	0	
10	1	0	
10	2	0	
10	3	0	
10	4	0	
10	5	0	
10	6	0	
10	7	0	
10	8	0	
10	9	0	
10	10	0	
10	11	0	
10	12	0	
10	13	0	
10	14	0	
10	15	0	
10	16	0	
10	17	0	
10	18	0	
10	19	0	
10	20	0	
10	21	0	
10	22	0	
10	23	0	
10	24	0	
10	25	0	
10	26	0	
10	27	0	
10	28	0	
10	29	0	
10	30	0	
10	31	0	
10	32	0	
10	33	0	
10	34	0	
10	35	0	
10	36	0	
10	37	0	
10	38	0	
10	39	0	
10	40	0	
10	41	0	
10	42	0	
10	43	0	
10	44	0	
10	45	0	
10	46	0	
10	47	0	
10	48	0	
10	49	0	
10	50	0	
10	51	0	
10	52	0	
10	53	0	
10	54	0	
10	55	0	
10	56	0	
10	57	0	
10	58	0	
10	59	0	
10	60	0	
10	61	0	
10	62	0	
10	63	0	
10	64	0	
10	65	0	
10	66	0	
10	67	0	
10	68	0	
10	69	0	
10	70	0	
10	71	0	
10	72	0	
10	73	0	
10	74	0	
10	75	0	
10	76	0	
10	77	0	
10	78	0	
10	79	0	
10	80	0	
10	81	0	
10	82	0	
10	83	0	
10	84	0	
10	85	0	
10	86	0	
10	87	0	
10	88	0	
10	89	0	
10	90	0	
10	91	0	
10	92	0	
10	93	0	
10	94	0	
10	95	0	
10	96	0	
10	97	0	
10	98	0	
10	99	0	
10	100	0	
11	0	0	
11	1	0	
11	2	0	
11	3	0	
11	4	0	
11	5	0	
11	6	0	
11	7	0	
11	8	0	
11	9	0	
11	10	0	
11	11	0	
11	12	0	
11	13	0	
11	14	0	
11	15	0	
11	16	0	
11	17	0	
11	18	0	
11	19	0	
11	20	0	
11	21	0	
11	22	0	
11	23	0	
11	24	0	
11	25	0	
11	26	0	
11	27	0	
11	28	0	
11	29	0	
11	30	0	
11	31	0	
11	32	0	
11	33	0	
11	34	0	
11	35	0	
11	36	0	
11	37	0	
11	38	0	
11	39	0	
11	40	0	
11	41	0	
11	42	0	
11	43	0	
11	44	0	
11	45	0	
11	46	0	
11	47	0	
11	48	0	
11	49	0	
11	50	0	
11	51	0	
11	52	0	
11	53	0	
11	54	0	
11	55	0	
11	56	0	
11	57	0	
11	58	0	
11	59	0	
11	60	0	
11	61	0	
11	62	0	
11	63	0	
11	64	0	
11	65	0	
11	66	0	
11	67	0	
11	68	0	
11	69	0	
11	70	0	
11	71	0	
11	72	0	
11	73	0	
11	74	0	
11	75	0	
11	76	0	
11	77	0	
11	78	0	
11	79	0	
11	80	0	
11	81	0	
11	82	0	
11	83	0	
11	84	0	
11	85	0	
11	86	0	
11	87	0	
11	88	0	
11	89	0	
11	90	0	
11	91	0	
11	92	0	
11	93	0	
11	94	0	
11	95	0	
11	96	0	
11	97	0	
11	98	0	
11	99	0	
11	100	0	
12	0	0	
12	1	0	
12	2	0	
12	3	0	
12	4	0	
12	5	0	
12	6	0	
12	7	0	
12	8	0	
12	9	0	
12	10	0	
12	11	0	
12	12	0	
12	13	0	
[...]
POINT_DATA	30401
VECTORS d float
-4.11361e-018	-7.46876e-018	0	
-2.22994e-007	-2.306e-007	0	
-3.87671e-007	-3.80466e-007	0	
-5.29807e-007	-5.03499e-007	0	
-6.62554e-007	-6.18982e-007	0	
-7.86262e-007	-7.19605e-007	0	
-9.02376e-007	-8.10202e-007	0	
-1.01156e-006	-8.926e-007	0	
-1.11434e-006	-9.69841e-007	0	
-1.21124e-006	-1.04299e-006	0	
-1.30245e-006	-1.11165e-006	0	
-1.38822e-006	-1.17648e-006	0	
-1.46877e-006	-1.23801e-006	0	
-1.54433e-006	-1.29666e-006	0	
-1.61508e-006	-1.35285e-006	0	
-1.68123e-006	-1.40694e-006	0	
-1.74297e-006	-1.45921e-006	0	
-1.80047e-006	-1.50995e-006	0	
-1.85395e-006	-1.55938e-006	0	
-1.90361e-006	-1.60775e-006	0	
-1.94967e-006	-1.65526e-006	0	
-1.99235e-006	-1.70204e-006	0	
-2.03184e-006	-1.74819e-006	0	
-2.06834e-006	-1.79383e-006	0	
-2.10203e-006	-1.83901e-006	0	
-2.1331e-006	-1.88379e-006	0	
-2.16173e-006	-1.92819e-006	0	
-2.18806e-006	-1.97222e-006	0	
-2.21225e-006	-2.01591e-006	0	
-2.23444e-006	-2.05923e-006	0	
-2.25477e-006	-2.10216e-006	0	
-2.27339e-006	-2.14467e-006	0	
-2.29039e-006	-2.18669e-006	0	
-2.30583e-006	-2.22817e-006	0	
-2.3198e-006	-2.26901e-006	0	
-2.33238e-006	-2.30917e-006	0	
-2.34363e-006	-2.34857e-006	0	
-2.3536e-006	-2.38715e-006	0	
-2.36229e-006	-2.42483e-006	0	
-2.3697e-006	-2.46154e-006	0	
-2.37588e-006	-2.4972e-006	0	
-2.3808e-006	-2.53175e-006	0	
-2.38447e-006	-2.56512e-006	0	
-2.38689e-006	-2.59724e-006	0	
-2.38803e-006	-2.62805e-006	0	
-2.38788e-006	-2.65745e-006	0	
-2.38639e-006	-2.68539e-006	0	
-2.38352e-006	-2.7118e-006	0	
-2.37929e-006	-2.73659e-006	0	
-2.37362e-006	-2.7597e-006	0	
-2.36648e-006	-2.78102e-006	0	
-2.35778e-006	-2.80047e-006	0	
-2.34745e-006	-2.81798e-006	0	
-2.33543e-006	-2.83345e-006	0	
-2.3216e-006	-2.84681e-006	0	
-2.30588e-006	-2.85798e-006	0	
-2.28813e-006	-2.86686e-006	0	
-2.26824e-006	-2.87339e-006	0	
-2.24607e-006	-2.87751e-006	0	
-2.22145e-006	-2.87916e-006	0	
-2.19424e-006	-2.87829e-006	0	
-2.16427e-006	-2.87484e-006	0	
-2.13137e-006	-2.86878e-006	0	
-2.09535e-006	-2.86009e-006	0	
-2.05601e-006	-2.84878e-006	0	
-2.01316e-006	-2.83482e-006	0	
-1.9666e-006	-2.81824e-006	0	
-1.91615e-006	-2.7991e-006	0	
-1.86162e-006	-2.77743e-006	0	
-1.80279e-006	-2.75328e-006	0	
-1.73946e-006	-2.72675e-006	0	
-1.67148e-006	-2.69793e-006	0	
-1.59867e-006	-2.66693e-006	0	
-1.52084e-006	-2.63389e-006	0	
-1.43785e-006	-2.59898e-006	0	
-1.34957e-006	-2.56231e-006	0	
-1.25586e-006	-2.52409e-006	0	
-1.15661e-006	-2.4845e-006	0	
-1.05174e-006	-2.44377e-006	0	
-9.41167e-007	-2.40213e-006	0	
-8.24859e-007	-2.35982e-006	0	
-7.02805e-007	-2.31708e-006	0	
-5.75031e-007	-2.2742e-006	0	
-4.41557e-007	-2.23146e-006	0	
-3.02449e-007	-2.18915e-006	0	
-1.57845e-007	-2.14756e-006	0	
-7.90142e-009	-2.10702e-006	0	
1.47201e-007	-2.06784e-006	0	
3.07222e-007	-2.03035e-006	0	
4.71865e-007	-1.99485e-006	0	
6.40811e-007	-1.96163e-006	0	
8.13653e-007	-1.931e-006	0	
9.89936e-007	-1.90323e-006	0	
1.16919e-006	-1.87859e-006	0	
1.35087e-006	-1.85728e-006	0	
1.53438e-006	-1.83946e-006	0	
1.71905e-006	-1.8252e-006	0	
1.90429e-006	-1.81453e-006	0	
2.08945e-006	-1.80727e-006	0	
2.27405e-006	-1.80308e-006	0	
2.45889e-006	-1.80115e-006	0	
-1.15736e-018	-2.41983e-018	0	
-1.66216e-007	-1.28558e-007	0	
-3.32232e-007	-2.67234e-007	0	
-4.78739e-007	-3.91569e-007	0	
-6.16028e-007	-5.0769e-007	0	
-7.44728e-007	-6.12964e-007	0	
-8.64548e-007	-7.08041e-007	0	
-9.7663e-007	-7.95566e-007	0	
-1.08132e-006	-8.77301e-007	0	
-1.17999e-006	-9.54814e-007	0	
-1.27298e-006	-1.02828e-006	0	
-1.36029e-006	-1.09784e-006	0	
-1.44219e-006	-1.16395e-006	0	
-1.51891e-006	-1.22706e-006	0	
-1.59067e-006	-1.28757e-006	0	
-1.65768e-006	-1.34582e-006	0	
-1.72016e-006	-1.40214e-006	0	
-1.77829e-006	-1.45676e-006	0	
-1.83231e-006	-1.50992e-006	0	
-1.88242e-006	-1.56183e-006	0	
-1.92886e-006	-1.61266e-006	0	
-1.97185e-006	-1.66259e-006	0	
-2.01162e-006	-1.71174e-006	0	
-2.04835e-006	-1.76021e-006	0	
-2.08226e-006	-1.80806e-006	0	
-2.11352e-006	-1.85536e-006	0	
-2.14232e-006	-1.90213e-006	0	
-2.16883e-006	-1.9484e-006	0	
-2.1932e-006	-1.99417e-006	0	
-2.21558e-006	-2.03947e-006	0	
-2.23611e-006	-2.08426e-006	0	
-2.25491e-006	-2.12851e-006	0	
-2.27212e-006	-2.17219e-006	0	
-2.28783e-006	-2.21525e-006	0	
-2.3021e-006	-2.25762e-006	0	
-2.315e-006	-2.29926e-006	0	
-2.32658e-006	-2.34009e-006	0	
-2.33689e-006	-2.38007e-006	0	
-2.34595e-006	-2.41913e-006	0	
-2.35381e-006	-2.45721e-006	0	
-2.36045e-006	-2.49423e-006	0	
-2.36587e-006	-2.53014e-006	0	
-2.37006e-006	-2.56488e-006	0	
-2.37301e-006	-2.59839e-006	0	
-2.37471e-006	-2.6306e-006	0	
-2.37515e-006	-2.66144e-006	0	
-2.37428e-006	-2.69085e-006	0	
-2.37209e-006	-2.71874e-006	0	
-2.36853e-006	-2.74507e-006	0	
-2.36359e-006	-2.76976e-006	0	
-2.3572e-006	-2.79273e-006	0	
-2.34928e-006	-2.81391e-006	0	
-2.33978e-006	-2.83321e-006	0	
-2.32861e-006	-2.85057e-006	0	
-2.31569e-006	-2.8659e-006	0	
-2.30089e-006	-2.87915e-006	0	
-2.2841e-006	-2.89024e-006	0	
-2.26521e-006	-2.89911e-006	0	
-2.24405e-006	-2.90571e-006	0	
-2.22047e-006	-2.90996e-006	0	
-2.19431e-006	-2.91185e-006	0	
-2.16542e-006	-2.91133e-006	0	
-2.13361e-006	-2.90836e-006	0	
-2.09867e-006	-2.90295e-006	0	
-2.06042e-006	-2.89507e-006	0	
-2.01866e-006	-2.88474e-006	0	
-1.97319e-006	-2.87198e-006	0	
-1.9238e-006	-2.85681e-006	0	
-1.8703e-006	-2.8393e-006	0	
-1.81247e-006	-2.81951e-006	0	
-1.75012e-006	-2.79749e-006	0	
-1.68308e-006	-2.77334e-006	0	
-1.61114e-006	-2.74716e-006	0	
-1.53413e-006	-2.71908e-006	0	
-1.45191e-006	-2.68924e-006	0	
-1.36432e-006	-2.65778e-006	0	
-1.27123e-006	-2.62488e-006	0	
-1.17252e-006	-2.59068e-006	0	
-1.0681e-006	-2.5554e-006	0	
-9.57877e-007	-2.51923e-006	0	
-8.41824e-007	-2.4824e-006	0	
-7.19916e-007	-2.44515e-006	0	
-5.92176e-007	-2.40771e-006	0	
-4.58608e-007	-2.37033e-006	0	
-3.1931e-007	-2.33328e-006	0	
-1.74389e-007	-2.29681e-006	0	
-2.39888e-008	-2.26121e-006	0	
1.31696e-007	-2.22675e-006	0	
2.92413e-007	-2.19369e-006	0	
4.57877e-007	-2.16233e-006	0	
6.27756e-007	-2.13292e-006	0	
8.01645e-007	-2.10569e-006	0	
9.79089e-007	-2.08089e-006	0	
1.1596e-006	-2.05874e-006	0	
1.3426e-006	-2.0394e-006	0	
1.52747e-006	-2.02301e-006	0	
1.71355e-006	-2.00964e-006	0	
1.90017e-006	-1.99933e-006	0	
2.08665e-006	-1.99203e-006	0	
2.27245e-006	-1.98767e-006	0	
2.45741e-006	-1.98593e-006	0	
-7.46731e-019	-2.10282e-018	0	
-1.39286e-007	-1.02388e-007	0	
-2.92704e-007	-2.14709e-007	0	
-4.36453e-007	-3.22828e-007	0	
-5.73358e-007	-4.28785e-007	0	
-7.04356e-007	-5.30517e-007	0	
-8.26929e-007	-6.25612e-007	0	
-9.41396e-007	-7.15494e-007	0	
-1.04801e-006	-7.99615e-007	0	
-1.14801e-006	-8.79199e-007	0	
-1.24236e-006	-9.55435e-007	0	
-1.33113e-006	-1.02835e-006	0	
-1.41436e-006	-1.09802e-006	0	
-1.49224e-006	-1.16469e-006	0	
-1.56499e-006	-1.22876e-006	0	
-1.63287e-006	-1.29054e-006	0	
-1.69609e-006	-1.35033e-006	0	
-1.75488e-006	-1.40835e-006	0	
-1.80948e-006	-1.46482e-006	0	
-1.8601e-006	-1.51991e-006	0	
-1.90695e-006	-1.57381e-006	0	
-1.95029e-006	-1.62667e-006	0	
-1.99036e-006	-1.67863e-006	0	
-2.02737e-006	-1.72979e-006	0	
-2.06153e-006	-1.78023e-006	0	
-2.09301e-006	-1.82998e-006	0	
-2.12201e-006	-1.87911e-006	0	
-2.14871e-006	-1.92764e-006	0	
-2.17328e-006	-1.97558e-006	0	
-2.19588e-006	-2.02293e-006	0	
-2.21662e-006	-2.06967e-006	0	
-2.23564e-006	-2.1158e-006	0	
-2.25308e-006	-2.16128e-006	0	
-2.26903e-006	-2.2061e-006	0	
-2.28359e-006	-2.25019e-006	0	
-2.2968e-006	-2.29349e-006	0	
-2.30871e-006	-2.33597e-006	0	
-2.31937e-006	-2.37756e-006	0	
-2.32882e-006	-2.41821e-006	0	
-2.33708e-006	-2.45787e-006	0	
-2.34416e-006	-2.49647e-006	0	
-2.35003e-006	-2.53396e-006	0	
-2.35471e-006	-2.57029e-006	0	
-2.35816e-006	-2.6054e-006	0	
-2.3604e-006	-2.63923e-006	0	
-2.36139e-006	-2.67173e-006	0	
-2.36111e-006	-2.70284e-006	0	
-2.35953e-006	-2.73249e-006	0	
-2.35663e-006	-2.7606e-006	0	
-2.35237e-006	-2.78713e-006	0	
-2.34669e-006	-2.812e-006	0	
-2.33952e-006	-2.83514e-006	0	
-2.33079e-006	-2.8565e-006	0	
-2.32043e-006	-2.87599e-006	0	
-2.30835e-006	-2.89356e-006	0	
-2.29443e-006	-2.90914e-006	0	
-2.27855e-006	-2.92266e-006	0	
-2.26057e-006	-2.93407e-006	0	
-2.24037e-006	-2.94333e-006	0	
-2.21777e-006	-2.95039e-006	0	
-2.19261e-006	-2.9552e-006	0	
-2.16473e-006	-2.95775e-006	0	
-2.13393e-006	-2.958e-006	0	
-2.10002e-006	-2.95594e-006	0	
-2.06281e-006	-2.95157e-006	0	
-2.02207e-006	-2.94491e-006	0	
-1.97762e-006	-2.93595e-006	0	
-1.92924e-006	-2.92475e-006	0	
-1.87672e-006	-2.91134e-006	0	
-1.81986e-006	-2.89578e-006	0	
-1.75844e-006	-2.87814e-006	0	
-1.69229e-006	-2.8585e-006	0	
-1.62121e-006	-2.83695e-006	0	
-1.54501e-006	-2.81359e-006	0	
-1.46354e-006	-2.78857e-006	0	
-1.37663e-006	-2.762e-006	0	
-1.28416e-006	-2.73405e-006	0	
-1.186e-006	-2.70487e-006	0	
-1.08204e-006	-2.67463e-006	0	
-9.72227e-007	-2.64349e-006	0	
-8.56481e-007	-2.61168e-006	0	
-7.34783e-007	-2.5794e-006	0	
-6.07134e-007	-2.54687e-006	0	
-4.73577e-007	-2.5143e-006	0	
-3.34184e-007	-2.48193e-006	0	
-1.89071e-007	-2.45e-006	0	
-3.83501e-008	-2.41874e-006	0	
1.17758e-007	-2.3884e-006	0	
2.79008e-007	-2.35922e-006	0	
4.45108e-007	-2.33143e-006	0	
6.15723e-007	-2.30527e-006	0	
7.90451e-007	-2.28096e-006	0	
9.68846e-007	-2.25868e-006	0	
1.15037e-006	-2.23865e-006	0	
1.33447e-006	-2.22101e-006	0	
1.52049e-006	-2.20589e-006	0	
1.70778e-006	-2.1934e-006	0	
1.89562e-006	-2.18361e-006	0	
2.08331e-006	-2.17655e-006	0	
2.27021e-006	-2.17217e-006	0	
2.45565e-006	-2.17025e-006	0	
-7.39511e-019	-1.97922e-018	0	
-1.28932e-007	-9.01217e-008	0	
-2.68706e-007	-1.84246e-007	0	
-4.05365e-007	-2.78907e-007	0	
-5.39166e-007	-3.74037e-007	0	
-6.68765e-007	-4.68818e-007	0	
-7.9167e-007	-5.61657e-007	0	
-9.07419e-007	-6.51164e-007	0	
-1.01567e-006	-7.36041e-007	0	
-1.11689e-006	-8.16586e-007	0	
-1.21199e-006	-8.93736e-007	0	
-1.30167e-006	-9.68314e-007	0	
-1.38598e-006	-1.04032e-006	0	
-1.4649e-006	-1.10975e-006	0	
-1.53857e-006	-1.17668e-006	0	
-1.60725e-006	-1.24135e-006	0	
-1.67118e-006	-1.30404e-006	0	
-1.7306e-006	-1.36498e-006	0	
-1.78576e-006	-1.42436e-006	0	
-1.83684e-006	-1.48235e-006	0	
-1.88412e-006	-1.53907e-006	0	
-1.92783e-006	-1.59465e-006	0	
-1.96821e-006	-1.64926e-006	0	
-2.00548e-006	-1.70298e-006	0	
-2.03987e-006	-1.7559e-006	0	
-2.07157e-006	-1.80807e-006	0	
-2.10079e-006	-1.85955e-006	0	
-2.1277e-006	-1.91034e-006	0	
-2.15246e-006	-1.96047e-006	0	
-2.17525e-006	-2.00994e-006	0	
-2.1962e-006	-2.05873e-006	0	
-2.21547e-006	-2.10686e-006	0	
-2.23315e-006	-2.1543e-006	0	
-2.24933e-006	-2.201e-006	0	
-2.26413e-006	-2.24695e-006	0	
-2.27763e-006	-2.2921e-006	0	
-2.28987e-006	-2.33639e-006	0	
-2.3009e-006	-2.37977e-006	0	
-2.31073e-006	-2.42219e-006	0	
-2.31937e-006	-2.46362e-006	0	
-2.32683e-006	-2.50399e-006	0	
-2.33313e-006	-2.54326e-006	0	
-2.33825e-006	-2.58138e-006	0	
-2.34218e-006	-2.61831e-006	0	
-2.34492e-006	-2.65397e-006	0	
-2.34643e-006	-2.68835e-006	0	
-2.34671e-006	-2.72137e-006	0	
-2.3457e-006	-2.75298e-006	0	
-2.3434e-006	-2.78311e-006	0	
-2.33977e-006	-2.81171e-006	0	
-2.33476e-006	-2.83872e-006	0	
-2.32831e-006	-2.86406e-006	0	
-2.32031e-006	-2.8877e-006	0	
-2.31071e-006	-2.90955e-006	0	
-2.29942e-006	-2.92956e-006	0	
-2.28632e-006	-2.94768e-006	0	
-2.27128e-006	-2.96384e-006	0	
-2.25419e-006	-2.97799e-006	0	
-2.2349e-006	-2.99009e-006	0	
-2.21323e-006	-3.0001e-006	0	
-2.18903e-006	-3.00799e-006	0	
-2.1621e-006	-3.01373e-006	0	
-2.13227e-006	-3.01729e-006	0	
-2.09935e-006	-3.01867e-006	0	
-2.06313e-006	-3.01787e-006	0	
-2.02338e-006	-3.01488e-006	0	
-1.97991e-006	-3.00974e-006	0	
-1.93251e-006	-3.00247e-006	0	
-1.88095e-006	-2.9931e-006	0	
-1.82503e-006	-2.98168e-006	0	
-1.76453e-006	-2.96828e-006	0	
-1.69926e-006	-2.95298e-006	0	
-1.62903e-006	-2.93586e-006	0	
-1.55365e-006	-2.91701e-006	0	
-1.47294e-006	-2.89655e-006	0	
-1.38674e-006	-2.87461e-006	0	
-1.29492e-006	-2.85129e-006	0	
-1.19734e-006	-2.82676e-006	0	
-1.0939e-006	-2.80117e-006	0	
-9.84533e-007	-2.77467e-006	0	
-8.69168e-007	-2.74746e-006	0	
-7.47755e-007	-2.71972e-006	0	
-6.20298e-007	-2.69163e-006	0	
-4.86857e-007	-2.66338e-006	0	
-3.47496e-007	-2.63519e-006	0	
-2.02304e-007	-2.60727e-006	0	
-5.14121e-008	-2.57985e-006	0	
1.04974e-007	-2.55312e-006	0	
2.66589e-007	-2.5273e-006	0	
4.33159e-007	-2.50261e-006	0	
6.04349e-007	-2.47925e-006	0	
7.79752e-007	-2.45742e-006	0	
9.58903e-007	-2.4373e-006	0	
1.14128e-006	-2.41908e-006	0	
1.32629e-006	-2.40289e-006	0	
1.51335e-006	-2.38889e-006	0	
1.70173e-006	-2.37721e-006	0	
1.89072e-006	-2.36793e-006	0	
2.07958e-006	-2.36113e-006	0	
2.26751e-006	-2.35681e-006	0	
2.45361e-006	-2.35482e-006	0	
-7.25136e-019	-1.80486e-018	0	
-1.22439e-007	-8.20933e-008	0	
-2.5405e-007	-1.67283e-007	0	
-3.83751e-007	-2.51224e-007	0	
-5.1281e-007	-3.37424e-007	0	
-6.39696e-007	-4.26406e-007	0	
-7.60744e-007	-5.14662e-007	0	
-8.76305e-007	-6.01306e-007	0	
-9.85206e-007	-6.85105e-007	0	
-1.08732e-006	-7.65656e-007	0	
-1.18303e-006	-8.43067e-007	0	
-1.27301e-006	-9.18006e-007	0	
-1.35784e-006	-9.91101e-007	0	
-1.43746e-006	-1.06227e-006	0	
-1.51189e-006	-1.13133e-006	0	
-1.58124e-006	-1.19834e-006	0	
-1.64579e-006	-1.26347e-006	0	
-1.70575e-006	-1.32691e-006	0	
-1.76137e-006	-1.38883e-006	0	
-1.81287e-006	-1.44937e-006	0	
-1.86054e-006	-1.50865e-006	0	
-1.90459e-006	-1.56681e-006	0	
-1.94525e-006	-1.62392e-006	0	
-1.98275e-006	-1.6801e-006	0	
-2.01734e-006	-1.73541e-006	0	
-2.04925e-006	-1.78995e-006	0	
-2.07866e-006	-1.84374e-006	0	
-2.10576e-006	-1.8968e-006	0	
-2.1307e-006	-1.94915e-006	0	
-2.15367e-006	-2.0008e-006	0	
-2.17482e-006	-2.05175e-006	0	
-2.19428e-006	-2.10198e-006	0	
-2.21217e-006	-2.15147e-006	0	
-2.2286e-006	-2.20019e-006	0	
-2.24365e-006	-2.24813e-006	0	
-2.25742e-006	-2.29525e-006	0	
-2.26995e-006	-2.34151e-006	0	
-2.28129e-006	-2.38684e-006	0	
-2.29145e-006	-2.43121e-006	0	
-2.30047e-006	-2.47457e-006	0	
-2.30834e-006	-2.51689e-006	0	
-2.31506e-006	-2.55813e-006	0	
-2.32061e-006	-2.59823e-006	0	
-2.32498e-006	-2.63715e-006	0	
-2.32817e-006	-2.67486e-006	0	
-2.33016e-006	-2.7113e-006	0	
-2.33093e-006	-2.74644e-006	0	
-2.33046e-006	-2.78021e-006	0	
-2.32871e-006	-2.81257e-006	0	
-2.32567e-006	-2.84345e-006	0	
-2.32128e-006	-2.87279e-006	0	
-2.31546e-006	-2.90054e-006	0	
-2.30814e-006	-2.92665e-006	0	
-2.29926e-006	-2.95106e-006	0	
-2.28872e-006	-2.97371e-006	0	
-2.2764e-006	-2.99455e-006	0	
-2.26218e-006	-3.01352e-006	0	
-2.24594e-006	-3.03057e-006	0	
-2.2275e-006	-3.04568e-006	0	
-2.20672e-006	-3.05879e-006	0	
-2.18343e-006	-3.06987e-006	0	
-2.15745e-006	-3.07891e-006	0	
-2.12857e-006	-3.08588e-006	0	
-2.0966e-006	-3.09077e-006	0	
-2.06135e-006	-3.09357e-006	0	
-2.02257e-006	-3.09428e-006	0	
-1.98008e-006	-3.09293e-006	0	
-1.93363e-006	-3.08953e-006	0	
-1.88304e-006	-3.08414e-006	0	
-1.82807e-006	-3.07679e-006	0	
-1.7685e-006	-3.06752e-006	0	
-1.70412e-006	-3.05641e-006	0	
-1.63475e-006	-3.04353e-006	0	
-1.5602e-006	-3.02898e-006	0	
-1.48029e-006	-3.01285e-006	0	
-1.39484e-006	-2.99526e-006	0	
-1.30373e-006	-2.9763e-006	0	
-1.2068e-006	-2.95611e-006	0	
-1.10395e-006	-2.93484e-006	0	
-9.95098e-007	-2.91262e-006	0	
-8.80186e-007	-2.88962e-006	0	
-7.59162e-007	-2.866e-006	0	
-6.32026e-007	-2.84193e-006	0	
-4.98817e-007	-2.81758e-006	0	
-3.59592e-007	-2.79315e-006	0	
-2.14445e-007	-2.76881e-006	0	
-6.3531e-008	-2.74476e-006	0	
9.29729e-008	-2.72118e-006	0	
2.54811e-007	-2.69829e-006	0	
4.21712e-007	-2.67627e-006	0	
5.93317e-007	-2.65532e-006	0	
7.69242e-007	-2.63561e-006	0	
9.49008e-007	-2.61733e-006	0	
1.13211e-006	-2.60063e-006	0	
1.31796e-006	-2.58568e-006	0	
1.50594e-006	-2.57263e-006	0	
1.69535e-006	-2.56164e-006	0	
1.88545e-006	-2.55282e-006	0	
2.07547e-006	-2.54625e-006	0	
2.26449e-006	-2.54197e-006	0	
2.45153e-006	-2.53998e-006	0	
-7.22917e-019	-1.69847e-018	0	
-1.18667e-007	-7.68109e-008	0	
-2.44081e-007	-1.5515e-007	0	
-3.68512e-007	-2.33067e-007	0	
-4.93091e-007	-3.13977e-007	0	
-6.1631e-007	-3.97699e-007	0	
-7.3493e-007	-4.8076e-007	0	
-8.49071e-007	-5.63697e-007	0	
-9.57527e-007	-6.45336e-007	0	
-1.05975e-006	-7.24871e-007	0	
-1.15582e-006	-8.02104e-007	0	
-1.24593e-006	-8.77057e-007	0	
-1.33073e-006	-9.50373e-007	0	
-1.41057e-006	-1.02232e-006	0	
-1.48538e-006	-1.09275e-006	0	
-1.55521e-006	-1.16151e-006	0	
-1.62022e-006	-1.22866e-006	0	
-1.68059e-006	-1.29424e-006	0	
-1.73656e-006	-1.35838e-006	0	
-1.78839e-006	-1.42119e-006	0	
-1.83634e-006	-1.48281e-006	0	
-1.88065e-006	-1.54333e-006	0	
-1.92153e-006	-1.60283e-006	0	
-1.95923e-006	-1.66138e-006	0	
-1.99401e-006	-1.71904e-006	0	
-2.02607e-006	-1.77589e-006	0	
-2.05561e-006	-1.83196e-006	0	
-2.08284e-006	-1.8873e-006	0	
-2.10795e-006	-1.94192e-006	0	
-2.13109e-006	-1.99581e-006	0	
-2.15239e-006	-2.04897e-006	0	
-2.17202e-006	-2.10138e-006	0	
-2.19009e-006	-2.15302e-006	0	
-2.20673e-006	-2.20387e-006	0	
-2.22202e-006	-2.25392e-006	0	
-2.23603e-006	-2.30312e-006	0	
-2.24881e-006	-2.35145e-006	0	
-2.26044e-006	-2.39889e-006	0	
-2.27093e-006	-2.44537e-006	0	
-2.28031e-006	-2.49085e-006	0	
-2.28854e-006	-2.53529e-006	0	
-2.29563e-006	-2.57864e-006	0	
-2.30156e-006	-2.62088e-006	0	
-2.30634e-006	-2.66198e-006	0	
-2.30994e-006	-2.7019e-006	0	
-2.31236e-006	-2.7406e-006	0	
-2.31359e-006	-2.77804e-006	0	
-2.31361e-006	-2.81416e-006	0	
-2.31238e-006	-2.84892e-006	0	
-2.30988e-006	-2.88226e-006	0	
-2.30605e-006	-2.91413e-006	0	
-2.30083e-006	-2.94447e-006	0	
-2.29416e-006	-2.97324e-006	0	
-2.28595e-006	-3.00039e-006	0	
-2.27612e-006	-3.02584e-006	0	
-2.26455e-006	-3.04956e-006	0	
-2.25111e-006	-3.07149e-006	0	
-2.23567e-006	-3.0916e-006	0	
-2.21807e-006	-3.10984e-006	0	
-2.19816e-006	-3.12617e-006	0	
-2.17575e-006	-3.14055e-006	0	
-2.15069e-006	-3.15297e-006	0	
-2.12275e-006	-3.16341e-006	0	
-2.09174e-006	-3.17185e-006	0	
-2.05744e-006	-3.17827e-006	0	
-2.01965e-006	-3.1827e-006	0	
-1.97814e-006	-3.18512e-006	0	
-1.93268e-006	-3.18558e-006	0	
-1.88305e-006	-3.18409e-006	0	
-1.82904e-006	-3.1807e-006	0	
-1.77042e-006	-3.17545e-006	0	
-1.70698e-006	-3.1684e-006	0	
-1.63852e-006	-3.15962e-006	0	
-1.56484e-006	-3.14918e-006	0	
-1.48578e-006	-3.13718e-006	0	
-1.40114e-006	-3.1237e-006	0	
-1.3108e-006	-3.10884e-006	0	
-1.21461e-006	-3.09273e-006	0	
-1.11243e-006	-3.07547e-006	0	
-1.00419e-006	-3.0572e-006	0	
-8.89836e-007	-3.03807e-006	0	
-7.69311e-007	-3.01822e-006	0	
-6.4262e-007	-2.99779e-006	0	
-5.09758e-007	-2.97695e-006	0	
-3.70791e-007	-2.95588e-006	0	
-2.25832e-007	-2.93473e-006	0	
-7.50279e-008	-2.91366e-006	0	
8.14519e-008	-2.89286e-006	0	
2.43383e-007	-2.87253e-006	0	
4.10463e-007	-2.85282e-006	0	
5.82355e-007	-2.83392e-006	0	
7.58669e-007	-2.81602e-006	0	
9.38942e-007	-2.79926e-006	0	
1.12267e-006	-2.78384e-006	0	
1.30928e-006	-2.76992e-006	0	
1.49814e-006	-2.75767e-006	0	
1.68855e-006	-2.74724e-006	0	
1.87977e-006	-2.73877e-006	0	
2.07098e-006	-2.73238e-006	0	
2.26126e-006	-2.72816e-006	0	
2.44952e-006	-2.72618e-006	0	
-7.17339e-019	-1.61472e-018	0	
-1.16101e-007	-7.30668e-008	0	
-2.3687e-007	-1.47013e-007	0	
-3.57363e-007	-2.21197e-007	0	
-4.7864e-007	-2.98656e-007	0	
-5.97541e-007	-3.77008e-007	0	
-7.13626e-007	-4.56143e-007	0	
-8.25817e-007	-5.35782e-007	0	
-9.33035e-007	-6.14956e-007	0	
-1.03463e-006	-6.92956e-007	0	
-1.13048e-006	-7.69476e-007	0	
-1.22058e-006	-8.44361e-007	0	
-1.30515e-006	-9.17643e-007	0	
-1.38475e-006	-9.89839e-007	0	
-1.45955e-006	-1.06098e-006	0	
-1.52952e-006	-1.13093e-006	0	
-1.59474e-006	-1.19962e-006	0	
-1.65534e-006	-1.26697e-006	0	
-1.71154e-006	-1.33305e-006	0	
-1.76357e-006	-1.39792e-006	0	
-1.81171e-006	-1.46167e-006	0	
-1.85615e-006	-1.52438e-006	0	
-1.89716e-006	-1.58612e-006	0	
-1.935e-006	-1.64695e-006	0	
-1.96989e-006	-1.70693e-006	0	
-2.00203e-006	-1.76608e-006	0	
-2.03165e-006	-1.82445e-006	0	
-2.05896e-006	-1.88209e-006	0	
-2.08417e-006	-1.939e-006	0	
-2.10742e-006	-1.99517e-006	0	
-2.12886e-006	-2.05058e-006	0	
-2.14862e-006	-2.10523e-006	0	
-2.16685e-006	-2.15912e-006	0	
-2.18365e-006	-2.2122e-006	0	
-2.19912e-006	-2.26445e-006	0	
-2.21333e-006	-2.31587e-006	0	
-2.22637e-006	-2.36642e-006	0	
-2.23828e-006	-2.41607e-006	0	
-2.24907e-006	-2.46477e-006	0	
-2.25876e-006	-2.51249e-006	0	
-2.26731e-006	-2.55917e-006	0	
-2.27472e-006	-2.6048e-006	0	
-2.281e-006	-2.64934e-006	0	
-2.28614e-006	-2.69278e-006	0	
-2.29012e-006	-2.73507e-006	0	