# vtk DataFile Version 4.1
vtk output
ASCII
DATASET UNSTRUCTURED_GRID

POINTS	30401	float
0	0	0	
0	1	0	
0	2	0	
0	3	0	
0	4	0	
0	5	0	
0	6	0	
0	7	0	
0	8	0	
0	9	0	
0	10	0	
0	11	0	
0	12	0	
0	13	0	
0	14	0	
0	15	0	
0	16	0	
0	17	0	
0	18	0	
0	19	0	
0	20	0	
0	21	0	
0	22	0	
0	23	0	
0	24	0	
0	25	0	
0	26	0	
0	27	0	
0	28	0	
0	29	0	
0	30	0	
0	31	0	
0	32	0	
0	33	0	
0	34	0	
0	35	0	
0	36	0	
0	37	0	
0	38	0	
0	39	0	
0	40	0	
0	41	0	
0	42	0	
0	43	0	
0	44	0	
0	45	0	
0	46	0	
0	47	0	
0	48	0	
0	49	0	
0	50	0	
0	51	0	
0	52	0	
0	53	0	
0	54	0	
0	55	0	
0	56	0	
0	57	0	
0	58	0	
0	59	0	
0	60	0	
0	61	0	
0	62	0	
0	63	0	
0	64	0	
0	65	0	
0	66	0	
0	67	0	
0	68	0	
0	69	0	
0	70	0	
0	71	0	
0	72	0	
0	73	0	
0	74	0	
0	75	0	
0	76	0	
0	77	0	
0	78	0	
0	79	0	
0	80	0	
0	81	0	
0	82	0	
0	83	0	
0	84	0	
0	85	0	
0	86	0	
0	87	0	
0	88	0	
0	89	0	
0	90	0	
0	91	0	
0	92	0	
0	93	0	
0	94	0	
0	95	0	
0	96	0	
0	97	0	
0	98	0	
0	99	0	
0	100	0	
1	0	0	
1	1	0	
1	2	0	
1	3	0	
1	4	0	
1	5	0	
1	6	0	
1	7	0	
1	8	0	
1	9	0	
1	10	0	
1	11	0	
1	12	0	
1	13	0	
1	14	0	
1	15	0	
1	16	0	
1	17	0	
1	18	0	
1	19	0	
1	20	0	
1	21	0	
1	22	0	
1	23	0	
1	24	0	
1	25	0	
1	26	0	
1	27	0	
1	28	0	
1	29	0	
1	30	0	
1	31	0	
1	32	0	
1	33	0	
1	34	0	
1	35	0	
1	36	0	
1	37	0	
1	38	0	
1	39	0	
1	40	0	
1	41	0	
1	42	0	
1	43	0	
1	44	0	
1	45	0	
1	46	0	
1	47	0	
1	48	0	
1	49	0	
1	50	0	
1	51	0	
1	52	0	
1	53	0	
1	54	0	
1	55	0	
1	56	0	
1	57	0	
1	58	0	
1	59	0	
1	60	0	
1	61	0	
1	62	0	
1	63	0	
1	64	0	
1	65	0	
1	66	0	
1	67	0	
1	68	0	
1	69	0	
1	70	0	
1	71	0	
1	72	0	
1	73	0	
1	74	0	
1	75	0	
1	76	0	
1	77	0	
1	78	0	
1	79	0	
1	80	0	
1	81	0	
1	82	0	
1	83	0	
1	84	0	
1	85	0	
1	86	0	
1	87	0	
1	88	0	
1	89	0	
1	90	0	
1	91	0	
1	92	0	
1	93	0	
1	94	0	
1	95	0	
1	96	0	
1	97	0	
1	98	0	
1	99	0	
1	100	0	
2	0	0	
2	1	0	
2	2	0	
2	3	0	
2	4	0	
2	5	0	
2	6	0	
2	7	0	
2	8	0	
2	9	0	
2	10	0	
2	11	0	
2	12	0	
2	13	0	
2	14	0	
2	15	0	
2	16	0	
2	17	0	
2	18	0	
2	19	0	
2	20	0	
2	21	0	
2	22	0	
2	23	0	
2	24	0	
2	25	0	
2	26	0	
2	27	0	
2	28	0	
2	29	0	
2	30	0	
2	31	0	
2	32	0	
2	33	0	
2	34	0	
2	35	0	
2	36	0	
2	37	0	
2	38	0	
2	39	0	
2	40	0	
2	41	0	
2	42	0	
2	43	0	
2	44	0	
2	45	0	
2	46	0	
2	47	0	
2	48	0	
2	49	0	
2	50	0	
2	51	0	
2	52	0	
2	53	0	
2	54	0	
2	55	0	
2	56	0	
2	57	0	
2	58	0	
2	59	0	
2	60	0	
2	61	0	
2	62	0	
2	63	0	
2	64	0	
2	65	0	
2	66	0	
2	67	0	
2	68	0	
2	69	0	
2	70	0	
2	71	0	
2	72	0	
2	73	0	
2	74	0	
2	75	0	
2	76	0	
2	77	0	
2	78	0	
2	79	0	
2	80	0	
2	81	0	
2	82	0	
2	83	0	
2	84	0	
2	85	0	
2	86	0	
2	87	0	
2	88	0	
2	89	0	
2	90	0	
2	91	0	
2	92	0	
2	93	0	
2	94	0	
2	95	0	
2	96	0	
2	97	0	
2	98	0	
2	99	0	
2	100	0	
3	0	0	
3	1	0	
3	2	0	
3	3	0	
3	4	0	
3	5	0	
3	6	0	
3	7	0	
3	8	0	
3	9	0	
3	10	0	
3	11	0	
3	12	0	
3	13	0	
3	14	0	
3	15	0	
3	16	0	
3	17	0	
3	18	0	
3	19	0	
3	20	0	
3	21	0	
3	22	0	
3	23	0	
3	24	0	
3	25	0	
3	26	0	
3	27	0	
3	28	0	
3	29	0	
3	30	0	
3	31	0	
3	32	0	
3	33	0	
3	34	0	
3	35	0	
3	36	0	
3	37	0	
3	38	0	
3	39	0	
3	40	0	
3	41	0	
3	42	0	
3	43	0	
3	44	0	
3	45	0	
3	46	0	
3	47	0	
3	48	0	
3	49	0	
3	50	0	
3	51	0	
3	52	0	
3	53	0	
3	54	0	
3	55	0	
3	56	0	
3	57	0	
3	58	0	
3	59	0	
3	60	0	
3	61	0	
3	62	0	
3	63	0	
3	64	0	
3	65	0	
3	66	0	
3	67	0	
3	68	0	
3	69	0	
3	70	0	
3	71	0	
3	72	0	
3	73	0	
3	74	0	
3	75	0	
3	76	0	
3	77	0	
3	78	0	
3	79	0	
3	80	0	
3	81	0	
3	82	0	
3	83	0	
3	84	0	
3	85	0	
3	86	0	
3	87	0	
3	88	0	
3	89	0	
3	90	0	
3	91	0	
3	92	0	
3	93	0	
3	94	0	
3	95	0	
3	96	0	
3	97	0	
3	98	0	
3	99	0	
3	100	0	
4	0	0	
4	1	0	
4	2	0	
4	3	0	
4	4	0	
4	5	0	
4	6	0	
4	7	0	
4	8	0	
4	9	0	
4	10	0	
4	11	0	
4	12	0	
4	13	0	
4	14	0	
4	15	0	
4	16	0	
4	17	0	
4	18	0	
4	19	0	
4	20	0	
4	21	0	
4	22	0	
4	23	0	
4	24	0	
4	25	0	
4	26	0	
4	27	0	
4	28	0	
4	29	0	
4	30	0	
4	31	0	
4	32	0	
4	33	0	
4	34	0	
4	35	0	
4	36	0	
4	37	0	
4	38	0	
4	39	0	
4	40	0	
4	41	0	
4	42	0	
4	43	0	
4	44	0	
4	45	0	
4	46	0	
4	47	0	
4	48	0	
4	49	0	
4	50	0	
4	51	0	
4	52	0	
4	53	0	
4	54	0	
4	55	0	
4	56	0	
4	57	0	
4	58	0	
4	59	0	
4	60	0	
4	61	0	
4	62	0	
4	63	0	
4	64	0	
4	65	0	
4	66	0	
4	67	0	
4	68	0	
4	69	0	
4	70	0	
4	71	0	
4	72	0	
4	73	0	
4	74	0	
4	75	0	
4	76	0	
4	77	0	
4	78	0	
4	79	0	
4	80	0	
4	81	0	
4	82	0	
4	83	0	
4	84	0	
4	85	0	
4	86	0	
4	87	0	
4	88	0	
4	89	0	
4	90	0	
4	91	0	
4	92	0	
4	93	0	
4	94	0	
4	95	0	
4	96	0	
4	97	0	
4	98	0	
4	99	0	
4	100	0	
5	0	0	
5	1	0	
5	2	0	
5	3	0	
5	4	0	
5	5	0	
5	6	0	
5	7	0	
5	8	0	
5	9	0	
5	10	0	
5	11	0	
5	12	0	
5	13	0	
5	14	0	
5	15	0	
5	16	0	
5	17	0	
5	18	0	
5	19	0	
5	20	0	
5	21	0	
5	22	0	
5	23	0	
5	24	0	
5	25	0	
5	26	0	
5	27	0	
5	28	0	
5	29	0	
5	30	0	
5	31	0	
5	32	0	
5	33	0	
5	34	0	
5	35	0	
5	36	0	
5	37	0	
5	38	0	
5	39	0	
5	40	0	
5	41	0	
5	42	0	
5	43	0	
5	44	0	
5	45	0	
5	46	0	
5	47	0	
5	48	0	
5	49	0	
5	50	0	
5	51	0	
5	52	0	
5	53	0	
5	54	0	
5	55	0	
5	56	0	
5	57	0	
5	58	0	
5	59	0	
5	60	0	
5	61	0	
5	62	0	
5	63	0	
5	64	0	
5	65	0	
5	66	0	
5	67	0	
5	68	0	
5	69	0	
5	70	0	
5	71	0	
5	72	0	
5	73	0	
5	74	0	
5	75	0	
5	76	0	
5	77	0	
5	78	0	
5	79	0	
5	80	0	
5	81	0	
5	82	0	
5	83	0	
5	84	0	
5	85	0	
5	86	0	
5	87	0	
5	88	0	
5	89	0	
5	90	0	
5	91	0	
5	92	0	
5	93	0	
5	94	0	
5	95	0	
5	96	0	
5	97	0	
5	98	0	
5	99	0	
5	100	0	
6	0	0	
6	1	0	
6	2	0	
6	3	0	
6	4	0	
6	5	0	
6	6	0	
6	7	0	
6	8	0	
6	9	0	
6	10	0	
6	11	0	
6	12	0	
6	13	0	
6	14	0	
6	15	0	
6	16	0	
6	17	0	
6	18	0	
6	19	0	
6	20	0	
6	21	0	
6	22	0	
6	23	0	
6	24	0	
6	25	0	
6	26	0	
6	27	0	
6	28	0	
6	29	0	
6	30	0	
6	31	0	
6	32	0	
6	33	0	
6	34	0	
6	35	0	
6	36	0	
6	37	0	
6	38	0	
6	39	0	
6	40	0	
6	41	0	
6	42	0	
6	43	0	
6	44	0	
6	45	0	
6	46	0	
6	47	0	
6	48	0	
6	49	0	
6	50	0	
6	51	0	
6	52	0	
6	53	0	
6	54	0	
6	55	0	
6	56	0	
6	57	0	
6	58	0	
6	59	0	
6	60	0	
6	61	0	
6	62	0	
6	63	0	
6	64	0	
6	65	0	
6	66	0	
6	67	0	
6	68	0	
6	69	0	
6	70	0	
6	71	0	
6	72	0	
6	73	0	
6	74	0	
6	75	0	
6	76	0	
6	77	0	
6	78	0	
6	79	0	
6	80	0	
6	81	0	
6	82	0	
6	83	0	
6	84	0	
6	85	0	
6	86	0	
6	87	0	
6	88	0	
6	89	0	
6	90	0	
6	91	0	
6	92	0	
6	93	0	
6	94	0	
6	95	0	
6	96	0	
6	97	0	
6	98	0	
6	99	0	
6	100	0	
7	0	0	
7	1	0	
7	2	0	
7	3	0	
7	4	0	
7	5	0	
7	6	0	
7	7	0	
7	8	0	
7	9	0	
7	10	0	
7	11	0	
7	12	0	
7	13	0	
7	14	0	
7	15	0	
7	16	0	
7	17	0	
7	18	0	
7	19	0	
7	20	0	
7	21	0	
7	22	0	
7	23	0	
7	24	0	
7	25	0	
7	26	0	
7	27	0	
7	28	0	
7	29	0	
7	30	0	
7	31	0	
7	32	0	
7	33	0	
7	34	0	
7	35	0	
7	36	0	
7	37	0	
7	38	0	
7	39	0	
7	40	0	
7	41	0	
7	42	0	
7	43	0	
7	44	0	
7	45	0	
7	46	0	
7	47	0	
7	48	0	
7	49	0	
7	50	0	
7	51	0	
7	52	0	
7	53	0	
7	54	0	
7	55	0	
7	56	0	
7	57	0	
7	58	0	
7	59	0	
7	60	0	
7	61	0	
7	62	0	
7	63	0	
7	64	0	
7	65	0	
7	66	0	
7	67	0	
7	68	0	
7	69	0	
7	70	0	
7	71	0	
7	72	0	
7	73	0	
7	74	0	
7	75	0	
7	76	0	
7	77	0	
7	78	0	
7	79	0	
7	80	0	
7	81	0	
7	82	0	
7	83	0	
7	84	0	
7	85	0	
7	86	0	
7	87	0	
7	88	0	
7	89	0	
7	90	0	
7	91	0	
7	92	0	
7	93	0	
7	94	0	
7	95	0	
7	96	0	
7	97	0	
7	98	0	
7	99	0	
7	100	0	
8	0	0	
8	1	0	
8	2	0	
8	3	0	
8	4	0	
8	5	0	
8	6	0	
8	7	0	
8	8	0	
8	9	0	
8	10	0	
8	11	0	
8	12	0	
8	13	0	
8	14	0	
8	15	0	
8	16	0	
8	17	0	
8	18	0	
8	19	0	
8	20	0	
8	21	0	
8	22	0	
8	23	0	
8	24	0	
8	25	0	
8	26	0	
8	27	0	
8	28	0	
8	29	0	
8	30	0	
8	31	0	
8	32	0	
8	33	0	
8	34	0	
8	35	0	
8	36	0	
8	37	0	
8	38	0	
8	39	0	
8	40	0	
8	41	0	
8	42	0	
8	43	0	
8	44	0	
8	45	0	
8	46	0	
8	47	0	
8	48	0	
8	49	0	
8	50	0	
8	51	0	
8	52	0	
8	53	0	
8	54	0	
8	55	0	
8	56	0	
8	57	0	
8	58	0	
8	59	0	
8	60	0	
8	61	0	
8	62	0	
8	63	0	
8	64	0	
8	65	0	
8	66	0	
8	67	0	
8	68	0	
8	69	0	
8	70	0	
8	71	0	
8	72	0	
8	73	0	
8	74	0	
8	75	0	
8	76	0	
8	77	0	
8	78	0	
8	79	0	
8	80	0	
8	81	0	
8	82	0	
8	83	0	
8	84	0	
8	85	0	
8	86	0	
8	87	0	
8	88	0	
8	89	0	
8	90	0	
8	91	0	
8	92	0	
8	93	0	
8	94	0	
8	95	0	
8	96	0	
8	97	0	
8	98	0	
8	99	0	
8	100	0	
9	0	0	
9	1	0	
9	2	0	
9	3	0	
9	4	0	
9	5	0	
9	6	0	
9	7	0	
9	8	0	
9	9	0	
9	10	0	
9	11	0	
9	12	0	
9	13	0	
9	14	0	
9	15	0	
9	16	0	
9	17	0	
9	18	0	
9	19	0	
9	20	0	
9	21	0	
9	22	0	
9	23	0	
9	24	0	
9	25	0	
9	26	0	
9	27	0	
9	28	0	
9	29	0	
9	30	0	
9	31	0	
9	32	0	
9	33	0	
9	34	0	
9	35	0	
9	36	0	
9	37	0	
9	38	0	
9	39	0	
9	40	0	
9	41	0	
9	42	0	
9	43	0	
9	44	0	
9	45	0	
9	46	0	
9	47	0	
9	48	0	
9	49	0	
9	50	0	
9	51	0	
9	52	0	
9	53	0	
9	54	0	
9	55	0	
9	56	0	
9	57	0	
9	58	0	
9	59	0	
9	60	0	
9	61	0	
9	62	0	
9	63	0	
9	64	0	
9	65	0	
9	66	0	
9	67	0	
9	68	0	
9	69	0	
9	70	0	
9	71	0	
9	72	0	
9	73	0	
9	74	0	
9	75	0	
9	76	0	
9	77	0	
9	78	0	
9	79	0	
9	80	0	
9	81	0	
9	82	0	
9	83	0	
9	84	0	
9	85	0	
9	86	0	
9	87	0	
9	88	0	
9	89	0	
9	90	0	
9	91	0	
9	92	0	
9	93	0	
9	94	0	
9	95	0	
9	96	0	
9	97	0	
9	98	0	
9	99	0	
9	100	0	
10	0	0	
10	1	0	
10	2	0	
10	3	0	
10	4	0	
10	5	0	
10	6	0	
10	7	0	
10	8	0	
10	9	0	
10	10	0	
10	11	0	
10	12	0	
10	13	0	
10	14	0	
10	15	0	
10	16	0	
10	17	0	
10	18	0	
10	19	0	
10	20	0	
10	21	0	
10	22	0	
10	23	0	
10	24	0	
10	25	0	
10	26	0	
10	27	0	
10	28	0	
10	29	0	
10	30	0	
10	31	0	
10	32	0	
10	33	0	
10	34	0	
10	35	0	
10	36	0	
10	37	0	
10	38	0	
10	39	0	
10	40	0	
10	41	0	
10	42	0	
10	43	0	
10	44	0	
10	45	0	
10	46	0	
10	47	0	
10	48	0	
10	49	0	
10	50	0	
10	51	0	
10	52	0	
10	53	0	
10	54	0	
10	55	0	
10	56	0	
10	57	0	
10	58	0	
10	59	0	
10	60	0	
10	61	0	
10	62	0	
10	63	0	
10	64	0	
10	65	0	
10	66	0	
10	67	0	
10	68	0	
10	69	0	
10	70	0	
10	71	0	
10	72	0	
10	73	0	
10	74	0	
10	75	0	
10	76	0	
10	77	0	
10	78	0	
10	79	0	
10	80	0	
10	81	0	
10	82	0	
10	83	0	
10	84	0	
10	85	0	
10	86	0	
10	87	0	
10	88	0	
10	89	0	
10	90	0	
10	91	0	
10	92	0	
10	93	0	
10	94	0	
10	95	0	
10	96	0	
10	97	0	
10	98	0	
10	99	0	
10	100	0	
11	0	0	
11	1	0	
11	2	0	
11	3	0	
11	4	0	
11	5	0	
11	6	0	
11	7	0	
11	8	0	
11	9	0	
11	10	0	
11	11	0	
11	12	0	
11	13	0	
11	14	0	
11	15	0	
11	16	0	
11	17	0	
11	18	0	
11	19	0	
11	20	0	
11	21	0	
11	22	0	
11	23	0	
11	24	0	
11	25	0	
11	26	0	
11	27	0	
11	28	0	
11	29	0	
11	30	0	
11	31	0	
11	32	0	
11	33	0	
11	34	0	
11	35	0	
11	36	0	
11	37	0	
11	38	0	
11	39	0	
11	40	0	
11	41	0	
11	42	0	
11	43	0	
11	44	0	
11	45	0	
11	46	0	
11	47	0	
11	48	0	
11	49	0	
11	50	0	
11	51	0	
11	52	0	
11	53	0	
11	54	0	
11	55	0	
11	56	0	
11	57	0	
11	58	0	
11	59	0	
11	60	0	
11	61	0	
11	62	0	
11	63	0	
11	64	0	
11	65	0	
11	66	0	
11	67	0	
11	68	0	
11	69	0	
11	70	0	
11	71	0	
11	72	0	
11	73	0	
11	74	0	
11	75	0	
11	76	0	
11	77	0	
11	78	0	
11	79	0	
11	80	0	
11	81	0	
11	82	0	
11	83	0	
11	84	0	
11	85	0	
11	86	0	
11	87	0	
11	88	0	
11	89	0	
11	90	0	
11	91	0	
11	92	0	
11	93	0	
11	94	0	
11	95	0	
11	96	0	
11	97	0	
11	98	0	
11	99	0	
11	100	0	
12	0	0	
12	1	0	
12	2	0	
12	3	0	
12	4	0	
12	5	0	
12	6	0	
12	7	0	
12	8	0	
12	9	0	
12	10	0	
12	11	0	
12	12	0	
12	13	0	
[...]
POINT_DATA	30401
VECTORS d float
-3.94933e-017	-7.11621e-017	0	
-2.04463e-006	-2.19756e-006	0	
-3.45329e-006	-3.55964e-006	0	
-4.66059e-006	-4.69175e-006	0	
-5.73568e-006	-5.70037e-006	0	
-6.72855e-006	-6.61443e-006	0	
-7.65627e-006	-7.46121e-006	0	
-8.53024e-006	-8.251e-006	0	
-9.35463e-006	-8.99595e-006	0	
-1.01357e-005	-9.70669e-006	0	
-1.08754e-005	-1.03891e-005	0	
-1.15762e-005	-1.10498e-005	0	
-1.22388e-005	-1.16929e-005	0	
-1.28701e-005	-1.23227e-005	0	
-1.34783e-005	-1.29361e-005	0	
-1.40588e-005	-1.35296e-005	0	
-1.461e-005	-1.41083e-005	0	
-1.51407e-005	-1.46751e-005	0	
-1.56572e-005	-1.52295e-005	0	
-1.61614e-005	-1.57659e-005	0	
-1.66449e-005	-1.62851e-005	0	
-1.71095e-005	-1.67905e-005	0	
-1.75573e-005	-1.7279e-005	0	
-1.7981e-005	-1.77482e-005	0	
-1.83695e-005	-1.82067e-005	0	
-1.87335e-005	-1.86666e-005	0	
-1.90904e-005	-1.91248e-005	0	
-1.94421e-005	-1.95755e-005	0	
-1.97864e-005	-2.00102e-005	0	
-2.01135e-005	-2.0427e-005	0	
-2.04292e-005	-2.08279e-005	0	
-2.07366e-005	-2.12119e-005	0	
-2.10404e-005	-2.15807e-005	0	
-2.13447e-005	-2.19316e-005	0	
-2.16428e-005	-2.22608e-005	0	
-2.19249e-005	-2.25676e-005	0	
-2.21807e-005	-2.28557e-005	0	
-2.24125e-005	-2.31331e-005	0	
-2.2632e-005	-2.34006e-005	0	
-2.28453e-005	-2.36537e-005	0	
-2.30573e-005	-2.38866e-005	0	
-2.32651e-005	-2.40911e-005	0	
-2.34588e-005	-2.42654e-005	0	
-2.3632e-005	-2.44097e-005	0	
-2.37732e-005	-2.45275e-005	0	
-2.38783e-005	-2.46247e-005	0	
-2.39464e-005	-2.4705e-005	0	
-2.39788e-005	-2.47687e-005	0	
-2.39817e-005	-2.48188e-005	0	
-2.3961e-005	-2.48517e-005	0	
-2.39089e-005	-2.4862e-005	0	
-2.38105e-005	-2.48511e-005	0	
-2.36557e-005	-2.48307e-005	0	
-2.34534e-005	-2.48123e-005	0	
-2.32207e-005	-2.47954e-005	0	
-2.2958e-005	-2.47748e-005	0	
-2.2667e-005	-2.47488e-005	0	
-2.23467e-005	-2.47185e-005	0	
-2.20019e-005	-2.46824e-005	0	
-2.16265e-005	-2.46367e-005	0	
-2.12073e-005	-2.45846e-005	0	
-2.07468e-005	-2.45379e-005	0	
-2.02596e-005	-2.44926e-005	0	
-1.9747e-005	-2.44417e-005	0	
-1.9203e-005	-2.4384e-005	0	
-1.8625e-005	-2.43269e-005	0	
-1.80246e-005	-2.42723e-005	0	
-1.74045e-005	-2.42148e-005	0	
-1.67581e-005	-2.41542e-005	0	
-1.60821e-005	-2.40968e-005	0	
-1.53819e-005	-2.40473e-005	0	
-1.46633e-005	-2.40028e-005	0	
-1.3923e-005	-2.39647e-005	0	
-1.31675e-005	-2.3932e-005	0	
-1.2398e-005	-2.39022e-005	0	
-1.16169e-005	-2.38715e-005	0	
-1.08218e-005	-2.38379e-005	0	
-1.0013e-005	-2.38008e-005	0	
-9.18657e-006	-2.37569e-005	0	
-8.33451e-006	-2.37068e-005	0	
-7.45109e-006	-2.36538e-005	0	
-6.53612e-006	-2.36104e-005	0	
-5.60818e-006	-2.35829e-005	0	
-4.6803e-006	-2.35672e-005	0	
-3.76449e-006	-2.3562e-005	0	
-2.8665e-006	-2.35548e-005	0	
-1.97329e-006	-2.35397e-005	0	
-1.07282e-006	-2.35145e-005	0	
-1.49817e-007	-2.34853e-005	0	
7.91867e-007	-2.34607e-005	0	
1.73998e-006	-2.34418e-005	0	
2.68915e-006	-2.34256e-005	0	
3.63956e-006	-2.34089e-005	0	
4.5964e-006	-2.3394e-005	0	
5.5578e-006	-2.33822e-005	0	
6.52489e-006	-2.33725e-005	0	
7.50102e-006	-2.33669e-005	0	
8.47947e-006	-2.33708e-005	0	
9.44983e-006	-2.33805e-005	0	
1.04108e-005	-2.339e-005	0	
1.13632e-005	-2.33986e-005	0	
-1.1355e-017	-2.53309e-017	0	
-1.50615e-006	-1.28271e-006	0	
-2.93168e-006	-2.54912e-006	0	
-4.19571e-006	-3.7305e-006	0	
-5.31627e-006	-4.78207e-006	0	
-6.3431e-006	-5.74432e-006	0	
-7.2978e-006	-6.63213e-006	0	
-8.19351e-006	-7.463e-006	0	
-9.03561e-006	-8.2472e-006	0	
-9.83014e-006	-8.99313e-006	0	
-1.05814e-005	-9.71067e-006	0	
-1.12901e-005	-1.04045e-005	0	
-1.19605e-005	-1.10777e-005	0	
-1.25997e-005	-1.17321e-005	0	
-1.3215e-005	-1.23677e-005	0	
-1.38031e-005	-1.29859e-005	0	
-1.43619e-005	-1.35855e-005	0	
-1.48983e-005	-1.4169e-005	0	
-1.54216e-005	-1.47359e-005	0	
-1.59317e-005	-1.52881e-005	0	
-1.64203e-005	-1.58279e-005	0	
-1.68916e-005	-1.63502e-005	0	
-1.7346e-005	-1.68606e-005	0	
-1.7773e-005	-1.73556e-005	0	
-1.81673e-005	-1.78427e-005	0	
-1.85349e-005	-1.83162e-005	0	
-1.88929e-005	-1.87836e-005	0	
-1.92515e-005	-1.92416e-005	0	
-1.95993e-005	-1.96883e-005	0	
-1.99364e-005	-2.01195e-005	0	
-2.02599e-005	-2.05306e-005	0	
-2.05766e-005	-2.09232e-005	0	
-2.08878e-005	-2.1297e-005	0	
-2.11977e-005	-2.16555e-005	0	
-2.15039e-005	-2.19998e-005	0	
-2.17917e-005	-2.23279e-005	0	
-2.20566e-005	-2.26391e-005	0	
-2.22954e-005	-2.29328e-005	0	
-2.25217e-005	-2.32081e-005	0	
-2.27431e-005	-2.3467e-005	0	
-2.29644e-005	-2.37045e-005	0	
-2.31825e-005	-2.39216e-005	0	
-2.33889e-005	-2.41124e-005	0	
-2.35704e-005	-2.42813e-005	0	
-2.37197e-005	-2.44307e-005	0	
-2.3833e-005	-2.45627e-005	0	
-2.39079e-005	-2.46768e-005	0	
-2.39488e-005	-2.47733e-005	0	
-2.39591e-005	-2.48523e-005	0	
-2.39446e-005	-2.4913e-005	0	
-2.38985e-005	-2.49622e-005	0	
-2.38041e-005	-2.49984e-005	0	
-2.3654e-005	-2.50247e-005	0	
-2.34548e-005	-2.50424e-005	0	
-2.32213e-005	-2.50557e-005	0	
-2.29636e-005	-2.50638e-005	0	
-2.2673e-005	-2.50665e-005	0	
-2.23557e-005	-2.50632e-005	0	
-2.2014e-005	-2.50542e-005	0	
-2.16381e-005	-2.50415e-005	0	
-2.12199e-005	-2.50282e-005	0	
-2.07612e-005	-2.50133e-005	0	
-2.02747e-005	-2.49933e-005	0	
-1.97649e-005	-2.49705e-005	0	
-1.92203e-005	-2.49433e-005	0	
-1.86441e-005	-2.49158e-005	0	
-1.80443e-005	-2.48832e-005	0	
-1.74244e-005	-2.48503e-005	0	
-1.67779e-005	-2.48163e-005	0	
-1.61008e-005	-2.47835e-005	0	
-1.5399e-005	-2.47533e-005	0	
-1.46761e-005	-2.47289e-005	0	
-1.39354e-005	-2.4709e-005	0	
-1.3177e-005	-2.46916e-005	0	
-1.24075e-005	-2.4676e-005	0	
-1.16271e-005	-2.46585e-005	0	
-1.08335e-005	-2.46407e-005	0	
-1.00257e-005	-2.46188e-005	0	
-9.20081e-006	-2.45964e-005	0	
-8.35026e-006	-2.45704e-005	0	
-7.46543e-006	-2.45451e-005	0	
-6.5501e-006	-2.45214e-005	0	
-5.61957e-006	-2.44996e-005	0	
-4.68986e-006	-2.44828e-005	0	
-3.77499e-006	-2.4466e-005	0	
-2.87413e-006	-2.44517e-005	0	
-1.9817e-006	-2.44382e-005	0	
-1.08031e-006	-2.44257e-005	0	
-1.57202e-007	-2.44139e-005	0	
7.8419e-007	-2.44005e-005	0	
1.73262e-006	-2.43871e-005	0	
2.68157e-006	-2.43721e-005	0	
3.63439e-006	-2.43602e-005	0	
4.59246e-006	-2.435e-005	0	
5.55557e-006	-2.43435e-005	0	
6.52514e-006	-2.43403e-005	0	
7.50187e-006	-2.43401e-005	0	
8.48234e-006	-2.4342e-005	0	
9.45379e-006	-2.43451e-005	0	
1.0416e-005	-2.43481e-005	0	
1.13782e-005	-2.43539e-005	0	
-6.67825e-018	-2.01798e-017	0	
-1.21429e-006	-9.64095e-007	0	
-2.53492e-006	-2.02247e-006	0	
-3.77671e-006	-3.08421e-006	0	
-4.91292e-006	-4.0972e-006	0	
-5.95985e-006	-5.04997e-006	0	
-6.93627e-006	-5.94788e-006	0	
-7.84942e-006	-6.79549e-006	0	
-8.70804e-006	-7.60129e-006	0	
-9.51631e-006	-8.37219e-006	0	
-1.02772e-005	-9.11333e-006	0	
-1.09961e-005	-9.83028e-006	0	
-1.16746e-005	-1.05256e-005	0	
-1.23236e-005	-1.11988e-005	0	
-1.29465e-005	-1.18524e-005	0	
-1.35426e-005	-1.24863e-005	0	
-1.41093e-005	-1.31024e-005	0	
-1.46535e-005	-1.36984e-005	0	
-1.51825e-005	-1.42798e-005	0	
-1.56937e-005	-1.48489e-005	0	
-1.61881e-005	-1.5403e-005	0	
-1.66632e-005	-1.59476e-005	0	
-1.71207e-005	-1.64746e-005	0	
-1.75542e-005	-1.69943e-005	0	
-1.79534e-005	-1.74968e-005	0	
-1.83288e-005	-1.79905e-005	0	
-1.86941e-005	-1.84691e-005	0	
-1.9053e-005	-1.8938e-005	0	
-1.94095e-005	-1.93959e-005	0	
-1.97531e-005	-1.98374e-005	0	
-2.00896e-005	-2.02614e-005	0	
-2.04145e-005	-2.06658e-005	0	
-2.07324e-005	-2.10541e-005	0	
-2.10469e-005	-2.14297e-005	0	
-2.13543e-005	-2.17923e-005	0	
-2.16521e-005	-2.21417e-005	0	
-2.19256e-005	-2.24715e-005	0	
-2.21787e-005	-2.27786e-005	0	
-2.24139e-005	-2.30658e-005	0	
-2.26432e-005	-2.33316e-005	0	
-2.28713e-005	-2.35818e-005	0	
-2.30987e-005	-2.38093e-005	0	
-2.33122e-005	-2.40208e-005	0	
-2.35004e-005	-2.4212e-005	0	
-2.36549e-005	-2.43882e-005	0	
-2.3773e-005	-2.45487e-005	0	
-2.38572e-005	-2.46937e-005	0	
-2.39061e-005	-2.48211e-005	0	
-2.39243e-005	-2.49296e-005	0	
-2.39135e-005	-2.50259e-005	0	
-2.38681e-005	-2.51089e-005	0	
-2.37786e-005	-2.51838e-005	0	
-2.36346e-005	-2.52463e-005	0	
-2.3442e-005	-2.52975e-005	0	
-2.32141e-005	-2.53384e-005	0	
-2.29549e-005	-2.53749e-005	0	
-2.26698e-005	-2.54059e-005	0	
-2.23559e-005	-2.54299e-005	0	
-2.20132e-005	-2.54481e-005	0	
-2.16374e-005	-2.54643e-005	0	
-2.12198e-005	-2.5479e-005	0	
-2.0764e-005	-2.5489e-005	0	
-2.02809e-005	-2.5497e-005	0	
-1.97687e-005	-2.54996e-005	0	
-1.92258e-005	-2.55038e-005	0	
-1.8651e-005	-2.55017e-005	0	
-1.8054e-005	-2.54978e-005	0	
-1.7435e-005	-2.54885e-005	0	
-1.67887e-005	-2.54774e-005	0	
-1.61122e-005	-2.54665e-005	0	
-1.5408e-005	-2.5457e-005	0	
-1.46837e-005	-2.54515e-005	0	
-1.39388e-005	-2.5449e-005	0	
-1.31805e-005	-2.5449e-005	0	
-1.24108e-005	-2.54466e-005	0	
-1.16297e-005	-2.54457e-005	0	
-1.08374e-005	-2.54412e-005	0	
-1.00298e-005	-2.54387e-005	0	
-9.2055e-006	-2.54321e-005	0	
-8.35478e-006	-2.54271e-005	0	
-7.47228e-006	-2.54196e-005	0	
-6.56088e-006	-2.54098e-005	0	
-5.63373e-006	-2.53982e-005	0	
-4.7087e-006	-2.53816e-005	0	
-3.79193e-006	-2.53666e-005	0	
-2.88871e-006	-2.53516e-005	0	
-1.98915e-006	-2.53417e-005	0	
-1.08247e-006	-2.53372e-005	0	
-1.59132e-007	-2.53345e-005	0	
7.80169e-007	-2.53312e-005	0	
1.72662e-006	-2.53231e-005	0	
2.67643e-006	-2.53162e-005	0	
3.63071e-006	-2.53077e-005	0	
4.59173e-006	-2.53025e-005	0	
5.55829e-006	-2.52995e-005	0	
6.52975e-006	-2.53006e-005	0	
7.50837e-006	-2.53042e-005	0	
8.48804e-006	-2.53079e-005	0	
9.46195e-006	-2.53127e-005	0	
1.04292e-005	-2.532e-005	0	
1.14015e-005	-2.53292e-005	0	
-6.37871e-018	-1.84576e-017	0	
-1.09046e-006	-8.3682e-007	0	
-2.27558e-006	-1.73783e-006	0	
-3.44901e-006	-2.67478e-006	0	
-4.56219e-006	-3.61022e-006	0	
-5.60893e-006	-4.52145e-006	0	
-6.59019e-006	-5.39836e-006	0	
-7.51413e-006	-6.24206e-006	0	
-8.38239e-006	-7.0536e-006	0	
-9.20073e-006	-7.83514e-006	0	
-9.97224e-006	-8.59078e-006	0	
-1.06981e-005	-9.32265e-006	0	
-1.1387e-005	-1.00326e-005	0	
-1.20448e-005	-1.0721e-005	0	
-1.26769e-005	-1.13874e-005	0	
-1.32808e-005	-1.20348e-005	0	
-1.3856e-005	-1.26605e-005	0	
-1.4407e-005	-1.32708e-005	0	
-1.49376e-005	-1.38647e-005	0	
-1.54522e-005	-1.44477e-005	0	
-1.59466e-005	-1.5021e-005	0	
-1.6426e-005	-1.55777e-005	0	
-1.68882e-005	-1.6126e-005	0	
-1.73234e-005	-1.66585e-005	0	
-1.77315e-005	-1.71824e-005	0	
-1.81147e-005	-1.76897e-005	0	
-1.84855e-005	-1.81849e-005	0	
-1.88538e-005	-1.86668e-005	0	
-1.92134e-005	-1.91339e-005	0	
-1.95691e-005	-1.95864e-005	0	
-1.99128e-005	-2.00228e-005	0	
-2.02467e-005	-2.0443e-005	0	
-2.05692e-005	-2.08507e-005	0	
-2.08845e-005	-2.12448e-005	0	
-2.11988e-005	-2.16288e-005	0	
-2.15018e-005	-2.1996e-005	0	
-2.17919e-005	-2.23442e-005	0	
-2.20578e-005	-2.26698e-005	0	
-2.2306e-005	-2.29704e-005	0	
-2.2543e-005	-2.32515e-005	0	
-2.27785e-005	-2.35101e-005	0	
-2.30107e-005	-2.37558e-005	0	
-2.32305e-005	-2.39823e-005	0	
-2.34227e-005	-2.4198e-005	0	
-2.35806e-005	-2.43979e-005	0	
-2.37049e-005	-2.45849e-005	0	
-2.37944e-005	-2.47558e-005	0	
-2.38519e-005	-2.49115e-005	0	
-2.38756e-005	-2.5052e-005	0	
-2.38671e-005	-2.51775e-005	0	
-2.38245e-005	-2.52942e-005	0	
-2.37376e-005	-2.53997e-005	0	
-2.36033e-005	-2.54932e-005	0	
-2.34193e-005	-2.55732e-005	0	
-2.31941e-005	-2.56431e-005	0	
-2.29394e-005	-2.57052e-005	0	
-2.26551e-005	-2.57628e-005	0	
-2.23444e-005	-2.5814e-005	0	
-2.20045e-005	-2.58602e-005	0	
-2.16274e-005	-2.5901e-005	0	
-2.12116e-005	-2.59381e-005	0	
-2.07593e-005	-2.59731e-005	0	
-2.02741e-005	-2.60028e-005	0	
-1.97621e-005	-2.60355e-005	0	
-1.92176e-005	-2.60645e-005	0	
-1.86469e-005	-2.60917e-005	0	
-1.80531e-005	-2.61111e-005	0	
-1.74374e-005	-2.61256e-005	0	
-1.67925e-005	-2.6138e-005	0	
-1.61155e-005	-2.61471e-005	0	
-1.54107e-005	-2.61597e-005	0	
-1.46814e-005	-2.6173e-005	0	
-1.39364e-005	-2.61898e-005	0	
-1.31774e-005	-2.62041e-005	0	
-1.24079e-005	-2.62189e-005	0	
-1.16273e-005	-2.62296e-005	0	
-1.08331e-005	-2.62425e-005	0	
-1.00268e-005	-2.62528e-005	0	
-9.20119e-006	-2.62659e-005	0	
-8.35352e-006	-2.62753e-005	0	
-7.47433e-006	-2.62833e-005	0	
-6.56921e-006	-2.62856e-005	0	
-5.64982e-006	-2.62809e-005	0	
-4.72726e-006	-2.62729e-005	0	
-3.81311e-006	-2.6261e-005	0	
-2.90307e-006	-2.62519e-005	0	
-1.99686e-006	-2.62471e-005	0	
-1.08358e-006	-2.62477e-005	0	
-1.58394e-007	-2.62515e-005	0	
7.79977e-007	-2.62534e-005	0	
1.72457e-006	-2.62557e-005	0	
2.67434e-006	-2.62534e-005	0	
3.63002e-006	-2.62529e-005	0	
4.59327e-006	-2.62503e-005	0	
5.5629e-006	-2.62509e-005	0	
6.53878e-006	-2.62537e-005	0	
7.51957e-006	-2.62602e-005	0	
8.50257e-006	-2.62691e-005	0	
9.48025e-006	-2.62804e-005	0	
1.04525e-005	-2.62951e-005	0	
1.14262e-005	-2.63092e-005	0	
-6.11471e-018	-1.65256e-017	0	
-1.01312e-006	-7.61332e-007	0	
-2.10375e-006	-1.56727e-006	0	
-3.20452e-006	-2.41026e-006	0	
-4.27761e-006	-3.2691e-006	0	
-5.30245e-006	-4.12506e-006	0	
-6.27667e-006	-4.96772e-006	0	
-7.19736e-006	-5.79178e-006	0	
-8.06903e-006	-6.59452e-006	0	
-8.8928e-006	-7.37664e-006	0	
-9.66936e-006	-8.13636e-006	0	
-1.04031e-005	-8.8759e-006	0	
-1.10989e-005	-9.59515e-006	0	
-1.17659e-005	-1.02936e-005	0	
-1.2407e-005	-1.09717e-005	0	
-1.30195e-005	-1.16277e-005	0	
-1.36022e-005	-1.22668e-005	0	
-1.41574e-005	-1.28861e-005	0	
-1.46908e-005	-1.34953e-005	0	
-1.52034e-005	-1.40925e-005	0	
-1.57013e-005	-1.46768e-005	0	
-1.61831e-005	-1.52507e-005	0	
-1.66466e-005	-1.58099e-005	0	
-1.70874e-005	-1.63608e-005	0	
-1.74995e-005	-1.68975e-005	0	
-1.78911e-005	-1.74224e-005	0	
-1.82723e-005	-1.79324e-005	0	
-1.86462e-005	-1.84262e-005	0	
-1.90178e-005	-1.89057e-005	0	
-1.93786e-005	-1.93698e-005	0	
-1.97311e-005	-1.98191e-005	0	
-2.00687e-005	-2.02584e-005	0	
-2.03949e-005	-2.0684e-005	0	
-2.07158e-005	-2.10994e-005	0	
-2.10326e-005	-2.14984e-005	0	
-2.13481e-005	-2.18843e-005	0	
-2.16475e-005	-2.2251e-005	0	
-2.19298e-005	-2.25963e-005	0	
-2.21915e-005	-2.29186e-005	0	
-2.24409e-005	-2.32144e-005	0	
-2.26838e-005	-2.34909e-005	0	
-2.2921e-005	-2.37474e-005	0	
-2.31421e-005	-2.39966e-005	0	
-2.33372e-005	-2.42321e-005	0	
-2.35e-005	-2.44577e-005	0	
-2.3628e-005	-2.4668e-005	0	
-2.37244e-005	-2.48644e-005	0	
-2.37866e-005	-2.50456e-005	0	
-2.38156e-005	-2.52121e-005	0	
-2.38108e-005	-2.53666e-005	0	
-2.3769e-005	-2.5508e-005	0	
-2.36889e-005	-2.56393e-005	0	
-2.35604e-005	-2.57598e-005	0	
-2.33849e-005	-2.58677e-005	0	
-2.31667e-005	-2.59647e-005	0	
-2.29124e-005	-2.60536e-005	0	
-2.26313e-005	-2.61365e-005	0	
-2.23232e-005	-2.62152e-005	0	
-2.19847e-005	-2.62865e-005	0	
-2.1612e-005	-2.63521e-005	0	
-2.11985e-005	-2.64115e-005	0	
-2.07451e-005	-2.64657e-005	0	
-2.02598e-005	-2.6522e-005	0	
-1.97428e-005	-2.65773e-005	0	
-1.91999e-005	-2.66331e-005	0	
-1.86323e-005	-2.66825e-005	0	
-1.80439e-005	-2.67256e-005	0	
-1.74309e-005	-2.6764e-005	0	
-1.67877e-005	-2.67967e-005	0	
-1.61113e-005	-2.68308e-005	0	
-1.54029e-005	-2.6862e-005	0	
-1.46729e-005	-2.68965e-005	0	
-1.39258e-005	-2.69285e-005	0	
-1.3169e-005	-2.69611e-005	0	
-1.24007e-005	-2.69889e-005	0	
-1.16195e-005	-2.70158e-005	0	
-1.08251e-005	-2.70404e-005	0	
-1.00154e-005	-2.70687e-005	0	
-9.19255e-006	-2.70949e-005	0	
-8.34518e-006	-2.71213e-005	0	
-7.47378e-006	-2.71414e-005	0	
-6.57595e-006	-2.71549e-005	0	
-5.66342e-006	-2.716e-005	0	
-4.74702e-006	-2.71584e-005	0	
-3.82993e-006	-2.71554e-005	0	
-2.9176e-006	-2.7153e-005	0	
-2.00318e-006	-2.71545e-005	0	
-1.08526e-006	-2.71602e-005	0	
-1.56381e-007	-2.71671e-005	0	
7.81208e-007	-2.71751e-005	0	
1.72665e-006	-2.71803e-005	0	
2.67645e-006	-2.71879e-005	0	
3.63312e-006	-2.71912e-005	0	
4.59732e-006	-2.71963e-005	0	
5.57026e-006	-2.71988e-005	0	
6.55066e-006	-2.72054e-005	0	
7.53727e-006	-2.72141e-005	0	
8.52602e-006	-2.72274e-005	0	
9.5095e-006	-2.72445e-005	0	
1.04859e-005	-2.72634e-005	0	
1.14572e-005	-2.72816e-005	0	
-5.95415e-018	-1.54181e-017	0	
-9.62673e-007	-7.11045e-007	0	
-1.98328e-006	-1.45446e-006	0	
-3.02384e-006	-2.22942e-006	0	
-4.04977e-006	-3.02521e-006	0	
-5.04506e-006	-3.82985e-006	0	
-5.99857e-006	-4.63394e-006	0	
-6.90859e-006	-5.43104e-006	0	
-7.77457e-006	-6.21804e-006	0	
-8.59689e-006	-6.99011e-006	0	
-9.37633e-006	-7.74741e-006	0	
-1.0113e-005	-8.48722e-006	0	
-1.08147e-005	-9.20992e-006	0	
-1.14885e-005	-9.91488e-006	0	
-1.21368e-005	-1.06004e-005	0	
-1.27579e-005	-1.12682e-005	0	
-1.33471e-005	-1.1916e-005	0	
-1.39058e-005	-1.25506e-005	0	
-1.44387e-005	-1.31701e-005	0	
-1.49532e-005	-1.37798e-005	0	
-1.54518e-005	-1.43774e-005	0	
-1.59356e-005	-1.49613e-005	0	
-1.64013e-005	-1.55361e-005	0	
-1.68432e-005	-1.6099e-005	0	
-1.72618e-005	-1.66514e-005	0	
-1.76618e-005	-1.71889e-005	0	
-1.80506e-005	-1.77114e-005	0	
-1.84364e-005	-1.82187e-005	0	
-1.88144e-005	-1.87107e-005	0	
-1.91848e-005	-1.91885e-005	0	
-1.95392e-005	-1.96561e-005	0	
-1.98811e-005	-2.01116e-005	0	
-2.02116e-005	-2.05582e-005	0	
-2.05382e-005	-2.0988e-005	0	
-2.08647e-005	-2.14044e-005	0	
-2.11845e-005	-2.18046e-005	0	
-2.14961e-005	-2.21899e-005	0	
-2.17895e-005	-2.25567e-005	0	
-2.20682e-005	-2.28986e-005	0	
-2.23332e-005	-2.32158e-005	0	
-2.25869e-005	-2.3508e-005	0	
-2.28266e-005	-2.37866e-005	0	
-2.30484e-005	-2.40523e-005	0	
-2.32448e-005	-2.43123e-005	0	
-2.34108e-005	-2.45602e-005	0	
-2.35453e-005	-2.47952e-005	0	
-2.36464e-005	-2.50151e-005	0	
-2.37144e-005	-2.52197e-005	0	
-2.37481e-005	-2.54104e-005	0	
-2.37469e-005	-2.55854e-005	0	
-2.37102e-005	-2.57491e-005	0	
-2.36318e-005	-2.59017e-005	0	
-2.35096e-005	-2.60448e-005	0	
-2.33406e-005	-2.61795e-005	0	
-2.31271e-005	-2.63037e-005	0	
-2.28777e-005	-2.64196e-005	0	
-2.2597e-005	-2.65292e-005	0	
-2.22912e-005	-2.66325e-005	0	
-2.19579e-005	-2.673e-005	0	
-2.15892e-005	-2.68187e-005	0	
-2.11782e-005	-2.68998e-005	0	
-2.0726e-005	-2.69787e-005	0	
-2.02347e-005	-2.70549e-005	0	
-1.97166e-005	-2.71332e-005	0	
-1.91743e-005	-2.72089e-005	0	
-1.86105e-005	-2.72796e-005	0	
-1.80259e-005	-2.73449e-005	0	
-1.74151e-005	-2.74049e-005	0	
-1.67742e-005	-2.74635e-005	0	
-1.6097e-005	-2.75168e-005	0	
-1.53894e-005	-2.75704e-005	0	
-1.46567e-005	-2.76209e-005	0	
-1.39111e-005	-2.76707e-005	0	
-1.31549e-005	-2.77175e-005	0	
-1.23891e-005	-2.77616e-005	0	
-1.16081e-005	-2.78023e-005	0	
-1.08109e-005	-2.78436e-005	0	
-1.00014e-005	-2.78845e-005	0	
-9.17567e-006	-2.79277e-005	0	
-8.33494e-006	-2.79662e-005	0	
-7.46761e-006	-2.80003e-005	0	
-6.58035e-006	-2.80238e-005	0	
-5.67555e-006	-2.804e-005	0	
-4.76157e-006	-2.80484e-005	0	
-3.84626e-006	-2.8054e-005	0	
-2.92819e-006	-2.80593e-005	0	
-2.01039e-006	-2.80672e-005	0	
-1.08701e-006	-2.80763e-005	0	
-1.56245e-007	-2.8086e-005	0	
7.84084e-007	-2.80955e-005	0	
1.73069e-006	-2.81076e-005	0	
2.68308e-006	-2.81171e-005	0	
3.64102e-006	-2.813e-005	0	
4.60699e-006	-2.81392e-005	0	
5.58235e-006	-2.81513e-005	0	
6.56731e-006	-2.81607e-005	0	
7.56133e-006	-2.81743e-005	0	
8.556e-006	-2.81906e-005	0	
9.54661e-006	-2.82095e-005	0	
1.05266e-005	-2.82305e-005	0	
1.1501e-005	-2.82513e-005	0	
-5.68921e-018	-1.52584e-017	0	
-9.24676e-007	-6.74698e-007	0	
-1.89616e-006	-1.37485e-006	0	
-2.88446e-006	-2.10052e-006	0	
-3.86835e-006	-2.84847e-006	0	
-4.82896e-006	-3.60952e-006	0	
-5.75714e-006	-4.37846e-006	0	
-6.64894e-006	-5.1483e-006	0	
-7.50338e-006	-5.91354e-006	0	
-8.31936e-006	-6.67175e-006	0	
-9.09531e-006	-7.41918e-006	0	
-9.83319e-006	-8.15478e-006	0	
-1.05373e-005	-8.87639e-006	0	
-1.12141e-005	-9.58309e-006	0	
-1.18685e-005	-1.02747e-005	0	
-1.24949e-005	-1.09499e-005	0	
-1.30895e-005	-1.16104e-005	0	
-1.36509e-005	-1.22542e-005	0	
-1.4185e-005	-1.28869e-005	0	
-1.46997e-005	-1.35062e-005	0	
-1.51996e-005	-1.41144e-005	0	
-1.56845e-005	-1.4713e-005	0	
-1.61501e-005	-1.53002e-005	0	
-1.65951e-005	-1.58782e-005	0	
-1.70193e-005	-1.64413e-005	0	
-1.74272e-005	-1.69913e-005	0	
-1.78262e-005	-1.75242e-005	0	
-1.82185e-005	-1.8044e-005	0	
-1.86057e-005	-1.85509e-005	0	
-1.89798e-005	-1.90477e-005	0	
-1.9339e-005	-1.9532e-005	0	
-1.9683e-005	-2.00076e-005	0	
-2.0021e-005	-2.04693e-005	0	
-2.03561e-005	-2.09166e-005	0	
-2.06891e-005	-2.13473e-005	0	
-2.10178e-005	-2.17639e-005	0	
-2.13346e-005	-2.21664e-005	0	
-2.16419e-005	-2.25494e-005	0	
-2.19362e-005	-2.29114e-005	0	
-2.22179e-005	-2.32478e-005	0	
-2.24822e-005	-2.35638e-005	0	
-2.27264e-005	-2.38625e-005	0	
-2.29481e-005	-2.41523e-005	0	
-2.31452e-005	-2.44319e-005	0	
-2.33156e-005	-2.47021e-005	0	