# vtk DataFile Version 4.1
vtk output
ASCII
DATASET UNSTRUCTURED_GRID

POINTS	44	float
0	0	0	
0	0	1	
0	1	1	
0	1	0	
1	0	0	
1	0	1	
1	1	1	
1	1	0	
2	0	0	
2	0	1	
2	1	1	
2	1	0	
3	0	0	
3	0	1	
3	1	1	
3	1	0	
4	0	0	
4	0	1	
4	1	1	
4	1	0	
5	0	0	
5	0	1	
5	1	1	
5	1	0	
6	0	0	
6	0	1	
6	1	1	
6	1	0	
7	0	0	
7	0	1	
7	1	1	
7	1	0	
8	0	0	
8	0	1	
8	1	1	
8	1	0	
9	0	0	
9	0	1	
9	1	1	
9	1	0	
10	0	0	
10	0	1	
10	1	1	
10	1	0	

CELLS 10	90
8	0	4	7	3	1	5	6	2	
8	4	8	11	7	5	9	10	6	
8	8	12	15	11	9	13	14	10	
8	12	16	19	15	13	17	18	14	
8	16	20	23	19	17	21	22	18	
8	20	24	27	23	21	25	26	22	
8	24	28	31	27	25	29	30	26	
8	28	32	35	31	29	33	34	30	
8	32	36	39	35	33	37	38	34	
8	36	40	43	39	37	41	42	38	

CELL_TYPES	10
12
12
12
12
12
12
12
12
12
12

POINT_DATA	44
VECTORS u float
-1.79519e-15	5.28211e-14	-5.62038e-14	
-1.79519e-15	-5.62038e-14	-5.28211e-14	
-1.79519e-15	-5.28211e-14	5.62038e-14	
-1.79519e-15	5.62038e-14	5.28211e-14	
-1.97623e-06	0.0040119	-0.00398278	
-1.97623e-06	-0.00398278	-0.0040119	
-1.97623e-06	-0.0040119	0.00398278	
-1.97623e-06	0.00398278	0.0040119	
-4.98115e-06	0.00805715	-0.00793172	
-4.98115e-06	-0.00793172	-0.00805715	
-4.98115e-06	-0.00805715	0.00793172	
-4.98115e-06	0.00793172	0.00805715	
-7.82848e-06	0.0121336	-0.0118485	
-7.82848e-06	-0.0118485	-0.0121336	
-7.82848e-06	-0.0121336	0.0118485	
-7.82848e-06	0.0118485	0.0121336	
-1.06978e-05	0.0162413	-0.0157324	
-1.06978e-05	-0.0157324	-0.0162413	
-1.06978e-05	-0.0162413	0.0157324	
-1.06978e-05	0.0157324	0.0162413	
-1.35782e-05	0.0203798	-0.0195835	
-1.35782e-05	-0.0195835	-0.0203798	
-1.35782e-05	-0.0203798	0.0195835	
-1.35782e-05	0.0195835	0.0203798	
-1.63624e-05	0.0245492	-0.0234011	
-1.63624e-05	-0.0234011	-0.0245492	
-1.63624e-05	-0.0245492	0.0234011	
-1.63624e-05	0.0234011	0.0245492	
-1.97774e-05	0.028748	-0.0271864	
-1.97774e-05	-0.0271864	-0.028748	
-1.97774e-05	-0.028748	0.0271864	
-1.97774e-05	0.0271864	0.028748	
-1.90829e-05	0.032983	-0.030931	
-1.90829e-05	-0.030931	-0.032983	
-1.90829e-05	-0.032983	0.030931	
-1.90829e-05	0.030931	0.032983	
-4.51551e-05	0.0372088	-0.0346875	
-4.51551e-05	-0.0346875	-0.0372088	
-4.51551e-05	-0.0372088	0.0346875	
-4.51551e-05	0.0346875	0.0372088	
0.000103114	0.041716	-0.0381093	
0.000103114	-0.0381093	-0.041716	
0.000103114	-0.041716	0.0381093	
0.000103114	0.0381093	0.041716	
