# vtk DataFile Version 4.1
vtk output
ASCII
DATASET UNSTRUCTURED_GRID

POINTS	44	float
0	0	0	
0	0	1	
0	1	1	
0	1	0	
1	0	0	
1	0	1	
1	1	1	
1	1	0	
2	0	0	
2	0	1	
2	1	1	
2	1	0	
3	0	0	
3	0	1	
3	1	1	
3	1	0	
4	0	0	
4	0	1	
4	1	1	
4	1	0	
5	0	0	
5	0	1	
5	1	1	
5	1	0	
6	0	0	
6	0	1	
6	1	1	
6	1	0	
7	0	0	
7	0	1	
7	1	1	
7	1	0	
8	0	0	
8	0	1	
8	1	1	
8	1	0	
9	0	0	
9	0	1	
9	1	1	
9	1	0	
10	0	0	
10	0	1	
10	1	1	
10	1	0	

CELLS 10	90
8	0	4	7	3	1	5	6	2	
8	4	8	11	7	5	9	10	6	
8	8	12	15	11	9	13	14	10	
8	12	16	19	15	13	17	18	14	
8	16	20	23	19	17	21	22	18	
8	20	24	27	23	21	25	26	22	
8	24	28	31	27	25	29	30	26	
8	28	32	35	31	29	33	34	30	
8	32	36	39	35	33	37	38	34	
8	36	40	43	39	37	41	42	38	

CELL_TYPES	10
12
12
12
12
12
12
12
12
12
12

POINT_DATA	44
VECTORS u float
-2.78002e-25	1.01299e-12	-1.01299e-12	
6.18166e-25	-1.01299e-12	-1.01299e-12	
2.81427e-25	-1.01299e-12	1.01299e-12	
-6.12862e-25	1.01299e-12	1.01299e-12	
-1.80259e-10	0.0742857	-0.0742857	
-1.80245e-10	-0.0742857	-0.0742857	
-1.8025e-10	-0.0742857	0.0742857	
-1.80264e-10	0.0742857	0.0742857	
8.41179e-10	0.148571	-0.148571	
8.41207e-10	-0.148571	-0.148571	
8.41196e-10	-0.148571	0.148571	
8.41169e-10	0.148571	0.148571	
-5.78818e-09	0.222857	-0.222857	
-5.78815e-09	-0.222857	-0.222857	
-5.78816e-09	-0.222857	0.222857	
-5.7882e-09	0.222857	0.222857	
3.73861e-08	0.297143	-0.297143	
3.73862e-08	-0.297143	-0.297143	
3.73861e-08	-0.297143	0.297143	
3.73861e-08	0.297143	0.297143	
-2.43813e-07	0.371428	-0.371429	
-2.43813e-07	-0.371429	-0.371428	
-2.43813e-07	-0.371428	0.371429	
-2.43813e-07	0.371429	0.371428	
1.58767e-06	0.445717	-0.445712	
1.58767e-06	-0.445712	-0.445717	
1.58767e-06	-0.445717	0.445712	
1.58767e-06	0.445712	0.445717	
-1.0341e-05	0.519984	-0.520016	
-1.0341e-05	-0.520016	-0.519984	
-1.0341e-05	-0.519984	0.520016	
-1.0341e-05	0.520016	0.519984	
6.73522e-05	0.594393	-0.594179	
6.73522e-05	-0.594179	-0.594393	
6.73522e-05	-0.594393	0.594179	
6.73522e-05	0.594179	0.594393	
-0.000438674	0.667874	-0.669269	
-0.000438674	-0.669269	-0.667874	
-0.000438674	-0.667874	0.669269	
-0.000438674	0.669269	0.667874	
0.00285714	0.7474	-0.738315	
0.00285714	-0.738315	-0.7474	
0.00285714	-0.7474	0.738315	
0.00285714	0.738315	0.7474	
