# vtk DataFile Version 4.1
vtk output
ASCII
DATASET UNSTRUCTURED_GRID

POINTS	441	float
0	0	0	
0	0.05	0	
0	0.1	0	
0	0.15	0	
0	0.2	0	
0	0.25	0	
0	0.3	0	
0	0.35	0	
0	0.4	0	
0	0.45	0	
0	0.5	0	
0	0.55	0	
0	0.6	0	
0	0.65	0	
0	0.7	0	
0	0.75	0	
0	0.8	0	
0	0.85	0	
0	0.9	0	
0	0.95	0	
0	1	0	
0.05	0	0	
0.05	0.05	0	
0.05	0.1	0	
0.05	0.15	0	
0.05	0.2	0	
0.05	0.25	0	
0.05	0.3	0	
0.05	0.35	0	
0.05	0.4	0	
0.05	0.45	0	
0.05	0.5	0	
0.05	0.55	0	
0.05	0.6	0	
0.05	0.65	0	
0.05	0.7	0	
0.05	0.75	0	
0.05	0.8	0	
0.05	0.85	0	
0.05	0.9	0	
0.05	0.95	0	
0.05	1	0	
0.1	0	0	
0.1	0.05	0	
0.1	0.1	0	
0.1	0.15	0	
0.1	0.2	0	
0.1	0.25	0	
0.1	0.3	0	
0.1	0.35	0	
0.1	0.4	0	
0.1	0.45	0	
0.1	0.5	0	
0.1	0.55	0	
0.1	0.6	0	
0.1	0.65	0	
0.1	0.7	0	
0.1	0.75	0	
0.1	0.8	0	
0.1	0.85	0	
0.1	0.9	0	
0.1	0.95	0	
0.1	1	0	
0.15	0	0	
0.15	0.05	0	
0.15	0.1	0	
0.15	0.15	0	
0.15	0.2	0	
0.15	0.25	0	
0.15	0.3	0	
0.15	0.35	0	
0.15	0.4	0	
0.15	0.45	0	
0.15	0.5	0	
0.15	0.55	0	
0.15	0.6	0	
0.15	0.65	0	
0.15	0.7	0	
0.15	0.75	0	
0.15	0.8	0	
0.15	0.85	0	
0.15	0.9	0	
0.15	0.95	0	
0.15	1	0	
0.2	0	0	
0.2	0.05	0	
0.2	0.1	0	
0.2	0.15	0	
0.2	0.2	0	
0.2	0.25	0	
0.2	0.3	0	
0.2	0.35	0	
0.2	0.4	0	
0.2	0.45	0	
0.2	0.5	0	
0.2	0.55	0	
0.2	0.6	0	
0.2	0.65	0	
0.2	0.7	0	
0.2	0.75	0	
0.2	0.8	0	
0.2	0.85	0	
0.2	0.9	0	
0.2	0.95	0	
0.2	1	0	
0.25	0	0	
0.25	0.05	0	
0.25	0.1	0	
0.25	0.15	0	
0.25	0.2	0	
0.25	0.25	0	
0.25	0.3	0	
0.25	0.35	0	
0.25	0.4	0	
0.25	0.45	0	
0.25	0.5	0	
0.25	0.55	0	
0.25	0.6	0	
0.25	0.65	0	
0.25	0.7	0	
0.25	0.75	0	
0.25	0.8	0	
0.25	0.85	0	
0.25	0.9	0	
0.25	0.95	0	
0.25	1	0	
0.3	0	0	
0.3	0.05	0	
0.3	0.1	0	
0.3	0.15	0	
0.3	0.2	0	
0.3	0.25	0	
0.3	0.3	0	
0.3	0.35	0	
0.3	0.4	0	
0.3	0.45	0	
0.3	0.5	0	
0.3	0.55	0	
0.3	0.6	0	
0.3	0.65	0	
0.3	0.7	0	
0.3	0.75	0	
0.3	0.8	0	
0.3	0.85	0	
0.3	0.9	0	
0.3	0.95	0	
0.3	1	0	
0.35	0	0	
0.35	0.05	0	
0.35	0.1	0	
0.35	0.15	0	
0.35	0.2	0	
0.35	0.25	0	
0.35	0.3	0	
0.35	0.35	0	
0.35	0.4	0	
0.35	0.45	0	
0.35	0.5	0	
0.35	0.55	0	
0.35	0.6	0	
0.35	0.65	0	
0.35	0.7	0	
0.35	0.75	0	
0.35	0.8	0	
0.35	0.85	0	
0.35	0.9	0	
0.35	0.95	0	
0.35	1	0	
0.4	0	0	
0.4	0.05	0	
0.4	0.1	0	
0.4	0.15	0	
0.4	0.2	0	
0.4	0.25	0	
0.4	0.3	0	
0.4	0.35	0	
0.4	0.4	0	
0.4	0.45	0	
0.4	0.5	0	
0.4	0.55	0	
0.4	0.6	0	
0.4	0.65	0	
0.4	0.7	0	
0.4	0.75	0	
0.4	0.8	0	
0.4	0.85	0	
0.4	0.9	0	
0.4	0.95	0	
0.4	1	0	
0.45	0	0	
0.45	0.05	0	
0.45	0.1	0	
0.45	0.15	0	
0.45	0.2	0	
0.45	0.25	0	
0.45	0.3	0	
0.45	0.35	0	
0.45	0.4	0	
0.45	0.45	0	
0.45	0.5	0	
0.45	0.55	0	
0.45	0.6	0	
0.45	0.65	0	
0.45	0.7	0	
0.45	0.75	0	
0.45	0.8	0	
0.45	0.85	0	
0.45	0.9	0	
0.45	0.95	0	
0.45	1	0	
0.5	0	0	
0.5	0.05	0	
0.5	0.1	0	
0.5	0.15	0	
0.5	0.2	0	
0.5	0.25	0	
0.5	0.3	0	
0.5	0.35	0	
0.5	0.4	0	
0.5	0.45	0	
0.5	0.5	0	
0.5	0.55	0	
0.5	0.6	0	
0.5	0.65	0	
0.5	0.7	0	
0.5	0.75	0	
0.5	0.8	0	
0.5	0.85	0	
0.5	0.9	0	
0.5	0.95	0	
0.5	1	0	
0.55	0	0	
0.55	0.05	0	
0.55	0.1	0	
0.55	0.15	0	
0.55	0.2	0	
0.55	0.25	0	
0.55	0.3	0	
0.55	0.35	0	
0.55	0.4	0	
0.55	0.45	0	
0.55	0.5	0	
0.55	0.55	0	
0.55	0.6	0	
0.55	0.65	0	
0.55	0.7	0	
0.55	0.75	0	
0.55	0.8	0	
0.55	0.85	0	
0.55	0.9	0	
0.55	0.95	0	
0.55	1	0	
0.6	0	0	
0.6	0.05	0	
0.6	0.1	0	
0.6	0.15	0	
0.6	0.2	0	
0.6	0.25	0	
0.6	0.3	0	
0.6	0.35	0	
0.6	0.4	0	
0.6	0.45	0	
0.6	0.5	0	
0.6	0.55	0	
0.6	0.6	0	
0.6	0.65	0	
0.6	0.7	0	
0.6	0.75	0	
0.6	0.8	0	
0.6	0.85	0	
0.6	0.9	0	
0.6	0.95	0	
0.6	1	0	
0.65	0	0	
0.65	0.05	0	
0.65	0.1	0	
0.65	0.15	0	
0.65	0.2	0	
0.65	0.25	0	
0.65	0.3	0	
0.65	0.35	0	
0.65	0.4	0	
0.65	0.45	0	
0.65	0.5	0	
0.65	0.55	0	
0.65	0.6	0	
0.65	0.65	0	
0.65	0.7	0	
0.65	0.75	0	
0.65	0.8	0	
0.65	0.85	0	
0.65	0.9	0	
0.65	0.95	0	
0.65	1	0	
0.7	0	0	
0.7	0.05	0	
0.7	0.1	0	
0.7	0.15	0	
0.7	0.2	0	
0.7	0.25	0	
0.7	0.3	0	
0.7	0.35	0	
0.7	0.4	0	
0.7	0.45	0	
0.7	0.5	0	
0.7	0.55	0	
0.7	0.6	0	
0.7	0.65	0	
0.7	0.7	0	
0.7	0.75	0	
0.7	0.8	0	
0.7	0.85	0	
0.7	0.9	0	
0.7	0.95	0	
0.7	1	0	
0.75	0	0	
0.75	0.05	0	
0.75	0.1	0	
0.75	0.15	0	
0.75	0.2	0	
0.75	0.25	0	
0.75	0.3	0	
0.75	0.35	0	
0.75	0.4	0	
0.75	0.45	0	
0.75	0.5	0	
0.75	0.55	0	
0.75	0.6	0	
0.75	0.65	0	
0.75	0.7	0	
0.75	0.75	0	
0.75	0.8	0	
0.75	0.85	0	
0.75	0.9	0	
0.75	0.95	0	
0.75	1	0	
0.8	0	0	
0.8	0.05	0	
0.8	0.1	0	
0.8	0.15	0	
0.8	0.2	0	
0.8	0.25	0	
0.8	0.3	0	
0.8	0.35	0	
0.8	0.4	0	
0.8	0.45	0	
0.8	0.5	0	
0.8	0.55	0	
0.8	0.6	0	
0.8	0.65	0	
0.8	0.7	0	
0.8	0.75	0	
0.8	0.8	0	
0.8	0.85	0	
0.8	0.9	0	
0.8	0.95	0	
0.8	1	0	
0.85	0	0	
0.85	0.05	0	
0.85	0.1	0	
0.85	0.15	0	
0.85	0.2	0	
0.85	0.25	0	
0.85	0.3	0	
0.85	0.35	0	
0.85	0.4	0	
0.85	0.45	0	
0.85	0.5	0	
0.85	0.55	0	
0.85	0.6	0	
0.85	0.65	0	
0.85	0.7	0	
0.85	0.75	0	
0.85	0.8	0	
0.85	0.85	0	
0.85	0.9	0	
0.85	0.95	0	
0.85	1	0	
0.9	0	0	
0.9	0.05	0	
0.9	0.1	0	
0.9	0.15	0	
0.9	0.2	0	
0.9	0.25	0	
0.9	0.3	0	
0.9	0.35	0	
0.9	0.4	0	
0.9	0.45	0	
0.9	0.5	0	
0.9	0.55	0	
0.9	0.6	0	
0.9	0.65	0	
0.9	0.7	0	
0.9	0.75	0	
0.9	0.8	0	
0.9	0.85	0	
0.9	0.9	0	
0.9	0.95	0	
0.9	1	0	
0.95	0	0	
0.95	0.05	0	
0.95	0.1	0	
0.95	0.15	0	
0.95	0.2	0	
0.95	0.25	0	
0.95	0.3	0	
0.95	0.35	0	
0.95	0.4	0	
0.95	0.45	0	
0.95	0.5	0	
0.95	0.55	0	
0.95	0.6	0	
0.95	0.65	0	
0.95	0.7	0	
0.95	0.75	0	
0.95	0.8	0	
0.95	0.85	0	
0.95	0.9	0	
0.95	0.95	0	
0.95	1	0	
1	0	0	
1	0.05	0	
1	0.1	0	
1	0.15	0	
1	0.2	0	
1	0.25	0	
1	0.3	0	
1	0.35	0	
1	0.4	0	
1	0.45	0	
1	0.5	0	
1	0.55	0	
1	0.6	0	
1	0.65	0	
1	0.7	0	
1	0.75	0	
1	0.8	0	
1	0.85	0	
1	0.9	0	
1	0.95	0	
1	1	0	

CELLS 400	2000
4	0	21	22	1	
4	1	22	23	2	
4	2	23	24	3	
4	3	24	25	4	
4	4	25	26	5	
4	5	26	27	6	
4	6	27	28	7	
4	7	28	29	8	
4	8	29	30	9	
4	9	30	31	10	
4	10	31	32	11	
4	11	32	33	12	
4	12	33	34	13	
4	13	34	35	14	
4	14	35	36	15	
4	15	36	37	16	
4	16	37	38	17	
4	17	38	39	18	
4	18	39	40	19	
4	19	40	41	20	
4	21	42	43	22	
4	22	43	44	23	
4	23	44	45	24	
4	24	45	46	25	
4	25	46	47	26	
4	26	47	48	27	
4	27	48	49	28	
4	28	49	50	29	
4	29	50	51	30	
4	30	51	52	31	
4	31	52	53	32	
4	32	53	54	33	
4	33	54	55	34	
4	34	55	56	35	
4	35	56	57	36	
4	36	57	58	37	
4	37	58	59	38	
4	38	59	60	39	
4	39	60	61	40	
4	40	61	62	41	
4	42	63	64	43	
4	43	64	65	44	
4	44	65	66	45	
4	45	66	67	46	
4	46	67	68	47	
4	47	68	69	48	
4	48	69	70	49	
4	49	70	71	50	
4	50	71	72	51	
4	51	72	73	52	
4	52	73	74	53	
4	53	74	75	54	
4	54	75	76	55	
4	55	76	77	56	
4	56	77	78	57	
4	57	78	79	58	
4	58	79	80	59	
4	59	80	81	60	
4	60	81	82	61	
4	61	82	83	62	
4	63	84	85	64	
4	64	85	86	65	
4	65	86	87	66	
4	66	87	88	67	
4	67	88	89	68	
4	68	89	90	69	
4	69	90	91	70	
4	70	91	92	71	
4	71	92	93	72	
4	72	93	94	73	
4	73	94	95	74	
4	74	95	96	75	
4	75	96	97	76	
4	76	97	98	77	
4	77	98	99	78	
4	78	99	100	79	
4	79	100	101	80	
4	80	101	102	81	
4	81	102	103	82	
4	82	103	104	83	
4	84	105	106	85	
4	85	106	107	86	
4	86	107	108	87	
4	87	108	109	88	
4	88	109	110	89	
4	89	110	111	90	
4	90	111	112	91	
4	91	112	113	92	
4	92	113	114	93	
4	93	114	115	94	
4	94	115	116	95	
4	95	116	117	96	
4	96	117	118	97	
4	97	118	119	98	
4	98	119	120	99	
4	99	120	121	100	
4	100	121	122	101	
4	101	122	123	102	
4	102	123	124	103	
4	103	124	125	104	
4	105	126	127	106	
4	106	127	128	107	
4	107	128	129	108	
4	108	129	130	109	
4	109	130	131	110	
4	110	131	132	111	
4	111	132	133	112	
4	112	133	134	113	
4	113	134	135	114	
4	114	135	136	115	
4	115	136	137	116	
4	116	137	138	117	
4	117	138	139	118	
4	118	139	140	119	
4	119	140	141	120	
4	120	141	142	121	
4	121	142	143	122	
4	122	143	144	123	
4	123	144	145	124	
4	124	145	146	125	
4	126	147	148	127	
4	127	148	149	128	
4	128	149	150	129	
4	129	150	151	130	
4	130	151	152	131	
4	131	152	153	132	
4	132	153	154	133	
4	133	154	155	134	
4	134	155	156	135	
4	135	156	157	136	
4	136	157	158	137	
4	137	158	159	138	
4	138	159	160	139	
4	139	160	161	140	
4	140	161	162	141	
4	141	162	163	142	
4	142	163	164	143	
4	143	164	165	144	
4	144	165	166	145	
4	145	166	167	146	
4	147	168	169	148	
4	148	169	170	149	
4	149	170	171	150	
4	150	171	172	151	
4	151	172	173	152	
4	152	173	174	153	
4	153	174	175	154	
4	154	175	176	155	
4	155	176	177	156	
4	156	177	178	157	
4	157	178	179	158	
4	158	179	180	159	
4	159	180	181	160	
4	160	181	182	161	
4	161	182	183	162	
4	162	183	184	163	
4	163	184	185	164	
4	164	185	186	165	
4	165	186	187	166	
4	166	187	188	167	
4	168	189	190	169	
4	169	190	191	170	
4	170	191	192	171	
4	171	192	193	172	
4	172	193	194	173	
4	173	194	195	174	
4	174	195	196	175	
4	175	196	197	176	
4	176	197	198	177	
4	177	198	199	178	
4	178	199	200	179	
4	179	200	201	180	
4	180	201	202	181	
4	181	202	203	182	
4	182	203	204	183	
4	183	204	205	184	
4	184	205	206	185	
4	185	206	207	186	
4	186	207	208	187	
4	187	208	209	188	
4	189	210	211	190	
4	190	211	212	191	
4	191	212	213	192	
4	192	213	214	193	
4	193	214	215	194	
4	194	215	216	195	
4	195	216	217	196	
4	196	217	218	197	
4	197	218	219	198	
4	198	219	220	199	
4	199	220	221	200	
4	200	221	222	201	
4	201	222	223	202	
4	202	223	224	203	
4	203	224	225	204	
4	204	225	226	205	
4	205	226	227	206	
4	206	227	228	207	
4	207	228	229	208	
4	208	229	230	209	
4	210	231	232	211	
4	211	232	233	212	
4	212	233	234	213	
4	213	234	235	214	
4	214	235	236	215	
4	215	236	237	216	
4	216	237	238	217	
4	217	238	239	218	
4	218	239	240	219	
4	219	240	241	220	
4	220	241	242	221	
4	221	242	243	222	
4	222	243	244	223	
4	223	244	245	224	
4	224	245	246	225	
4	225	246	247	226	
4	226	247	248	227	
4	227	248	249	228	
4	228	249	250	229	
4	229	250	251	230	
4	231	252	253	232	
4	232	253	254	233	
4	233	254	255	234	
4	234	255	256	235	
4	235	256	257	236	
4	236	257	258	237	
4	237	258	259	238	
4	238	259	260	239	
4	239	260	261	240	
4	240	261	262	241	
4	241	262	263	242	
4	242	263	264	243	
4	243	264	265	244	
4	244	265	266	245	
4	245	266	267	246	
4	246	267	268	247	
4	247	268	269	248	
4	248	269	270	249	
4	249	270	271	250	
4	250	271	272	251	
4	252	273	274	253	
4	253	274	275	254	
4	254	275	276	255	
4	255	276	277	256	
4	256	277	278	257	
4	257	278	279	258	
4	258	279	280	259	
4	259	280	281	260	
4	260	281	282	261	
4	261	282	283	262	
4	262	283	284	263	
4	263	284	285	264	
4	264	285	286	265	
4	265	286	287	266	
4	266	287	288	267	
4	267	288	289	268	
4	268	289	290	269	
4	269	290	291	270	
4	270	291	292	271	
4	271	292	293	272	
4	273	294	295	274	
4	274	295	296	275	
4	275	296	297	276	
4	276	297	298	277	
4	277	298	299	278	
4	278	299	300	279	
4	279	300	301	280	
4	280	301	302	281	
4	281	302	303	282	
4	282	303	304	283	
4	283	304	305	284	
4	284	305	306	285	
4	285	306	307	286	
4	286	307	308	287	
4	287	308	309	288	
4	288	309	310	289	
4	289	310	311	290	
4	290	311	312	291	
4	291	312	313	292	
4	292	313	314	293	
4	294	315	316	295	
4	295	316	317	296	
4	296	317	318	297	
4	297	318	319	298	
4	298	319	320	299	
4	299	320	321	300	
4	300	321	322	301	
4	301	322	323	302	
4	302	323	324	303	
4	303	324	325	304	
4	304	325	326	305	
4	305	326	327	306	
4	306	327	328	307	
4	307	328	329	308	
4	308	329	330	309	
4	309	330	331	310	
4	310	331	332	311	
4	311	332	333	312	
4	312	333	334	313	
4	313	334	335	314	
4	315	336	337	316	
4	316	337	338	317	
4	317	338	339	318	
4	318	339	340	319	
4	319	340	341	320	
4	320	341	342	321	
4	321	342	343	322	
4	322	343	344	323	
4	323	344	345	324	
4	324	345	346	325	
4	325	346	347	326	
4	326	347	348	327	
4	327	348	349	328	
4	328	349	350	329	
4	329	350	351	330	
4	330	351	352	331	
4	331	352	353	332	
4	332	353	354	333	
4	333	354	355	334	
4	334	355	356	335	
4	336	357	358	337	
4	337	358	359	338	
4	338	359	360	339	
4	339	360	361	340	
4	340	361	362	341	
4	341	362	363	342	
4	342	363	364	343	
4	343	364	365	344	
4	344	365	366	345	
4	345	366	367	346	
4	346	367	368	347	
4	347	368	369	348	
4	348	369	370	349	
4	349	370	371	350	
4	350	371	372	351	
4	351	372	373	352	
4	352	373	374	353	
4	353	374	375	354	
4	354	375	376	355	
4	355	376	377	356	
4	357	378	379	358	
4	358	379	380	359	
4	359	380	381	360	
4	360	381	382	361	
4	361	382	383	362	
4	362	383	384	363	
4	363	384	385	364	
4	364	385	386	365	
4	365	386	387	366	
4	366	387	388	367	
4	367	388	389	368	
4	368	389	390	369	
4	369	390	391	370	
4	370	391	392	371	
4	371	392	393	372	
4	372	393	394	373	
4	373	394	395	374	
4	374	395	396	375	
4	375	396	397	376	
4	376	397	398	377	
4	378	399	400	379	
4	379	400	401	380	
4	380	401	402	381	
4	381	402	403	382	
4	382	403	404	383	
4	383	404	405	384	
4	384	405	406	385	
4	385	406	407	386	
4	386	407	408	387	
4	387	408	409	388	
4	388	409	410	389	
4	389	410	411	390	
4	390	411	412	391	
4	391	412	413	392	
4	392	413	414	393	
4	393	414	415	394	
4	394	415	416	395	
4	395	416	417	396	
4	396	417	418	397	
4	397	418	419	398	
4	399	420	421	400	
4	400	421	422	401	
4	401	422	423	402	
4	402	423	424	403	
4	403	424	425	404	
4	404	425	426	405	
4	405	426	427	406	
4	406	427	428	407	
4	407	428	429	408	
4	408	429	430	409	
4	409	430	431	410	
4	410	431	432	411	
4	411	432	433	412	
4	412	433	434	413	
4	413	434	435	414	
4	414	435	436	415	
4	415	436	437	416	
4	416	437	438	417	
4	417	438	439	418	
4	418	439	440	419	

CELL_TYPES	400
9
9
9
9
9
9
9
9
9
9
9
9
9
9
9
9
9
9
9
9
9
9
9
9
9
9
9
9
9
9
9
9
9
9
9
9
9
9
9
9
9
9
9
9
9
9
9
9
9
9
9
9
9
9
9
9
9
9
9
9
9
9
9
9
9
9
9
9
9
9
9
9
9
9
9
9
9
9
9
9
9
9
9
9
9
9
9
9
9
9
9
9
9
9
9
9
9
9
9
9
9
9
9
9
9
9
9
9
9
9
9
9
9
9
9
9
9
9
9
9
9
9
9
9
9
9
9
9
9
9
9
9
9
9
9
9
9
9
9
9
9
9
9
9
9
9
9
9
9
9
9
9
9
9
9
9
9
9
9
9
9
9
9
9
9
9
9
9
9
9
9
9
9
9
9
9
9
9
9
9
9
9
9
9
9
9
9
9
9
9
9
9
9
9
9
9
9
9
9
9
9
9
9
9
9
9
9
9
9
9
9
9
9
9
9
9
9
9
9
9
9
9
9
9
9
9
9
9
9
9
9
9
9
9
9
9
9
9
9
9
9
9
9
9
9
9
9
9
9
9
9
9
9
9
9
9
9
9
9
9
9
9
9
9
9
9
9
9
9
9
9
9
9
9
9
9
9
9
9
9
9
9
9
9
9
9
9
9
9
9
9
9
9
9
9
9
9
9
9
9
9
9
9
9
9
9
9
9
9
9
9
9
9
9
9
9
9
9
9
9
9
9
9
9
9
9
9
9
9
9
9
9
9
9
9
9
9
9
9
9
9
9
9
9
9
9
9
9
9
9
9
9
9
9
9
9
9
9
9
9
9
9
9
9
9
9
9
9
9
9
9
9
9
9
9
9
9
9
9
9
9
9
9
9
9
9
9
9
9
9
9
9
9
9
9
9
9
9
9
9

POINT_DATA	441
VECTORS chi0 float
3.09527e-015	8.19896e-015	0	
-2.28107e-011	0.0207578	0	
-4.43299e-011	0.0394408	0	
-6.25806e-011	0.0524548	0	
-7.48257e-011	0.0564966	0	
-7.88241e-011	0.051552	0	
-7.41789e-011	0.041544	0	
-6.21155e-011	0.0301723	0	
-4.44583e-011	0.0194239	0	
-2.31353e-011	0.00947889	0	
4.58212e-015	6.78214e-015	0	
2.31443e-011	-0.00947889	0	
4.44672e-011	-0.0194239	0	
6.2124e-011	-0.0301723	0	
7.41872e-011	-0.041544	0	
7.88319e-011	-0.051552	0	
7.48332e-011	-0.0564966	0	
6.25877e-011	-0.0524548	0	
4.43365e-011	-0.0394408	0	
2.28171e-011	-0.0207578	0	
3.09527e-015	8.19896e-015	0	
0.00244052	-1.27981e-011	0	
0.00374019	0.0196484	0	
0.00911052	0.0379839	0	
0.021046	0.0513993	0	
0.0369679	0.0549703	0	
0.0488618	0.0493786	0	
0.0541558	0.0391126	0	
0.0552812	0.0285574	0	
0.0550873	0.018548	0	
0.054703	0.00911697	0	
0.0545439	-4.06655e-011	0	
0.054703	-0.00911697	0	
0.0550873	-0.018548	0	
0.0552812	-0.0285574	0	
0.0541558	-0.0391126	0	
0.0488618	-0.0493786	0	
0.0369679	-0.0549703	0	
0.021046	-0.0513993	0	
0.00911052	-0.0379839	0	
0.00374019	-0.0196484	0	
0.00244052	-1.27981e-011	0	
0.00606303	-2.33249e-011	0	
0.0078525	0.0163406	0	
0.016209	0.0327331	0	
0.039596	0.0465206	0	
0.0774486	0.0495968	0	
0.100542	0.0404348	0	
0.107934	0.0324235	0	
0.109684	0.0246057	0	
0.109414	0.0165913	0	
0.108864	0.00835515	0	
0.108633	-7.88224e-011	0	
0.108864	-0.00835515	0	
0.109414	-0.0165913	0	
0.109684	-0.0246057	0	
0.107934	-0.0324235	0	
0.100542	-0.0404348	0	
0.0774486	-0.0495968	0	
0.039596	-0.0465206	0	
0.016209	-0.0327331	0	
0.0078525	-0.0163406	0	
0.00606303	-2.33249e-011	0	
0.0108435	-3.03816e-011	0	
0.0133116	0.0133163	0	
0.0210615	0.0244724	0	
0.0527501	0.0330643	0	
0.129612	0.0242563	0	
0.151109	0.0250827	0	
0.160156	0.0249295	0	
0.162575	0.0214174	0	
0.162771	0.0154629	0	
0.162435	0.0080514	0	
0.162267	-1.1241e-010	0	
0.162435	-0.0080514	0	
0.162771	-0.0154629	0	
0.162575	-0.0214174	0	
0.160156	-0.0249295	0	
0.151109	-0.0250827	0	
0.129612	-0.0242563	0	
0.0527501	-0.0330643	0	
0.0210615	-0.0244724	0	
0.0133116	-0.0133163	0	
0.0108435	-3.03816e-011	0	
0.0154414	-3.401e-011	0	
0.0175178	0.0141873	0	
0.0256248	0.0288581	0	
0.0284132	0.0534833	0	
0	0	0	
0	0	0	
0	0	0	
0	0	0	
0	0	0	
0	0	0	
0	0	0	
0	0	0	
0	0	0	
0	0	0	
0	0	0	
0	0	0	
0	0	0	
0.0284132	-0.0534833	0	
0.0256248	-0.0288581	0	
0.0175178	-0.0141873	0	
0.0154414	-3.401e-011	0	
0.0173566	-3.44729e-011	0	
0.0188454	0.0177406	0	
0.0210674	0.0381985	0	
0.018795	0.0609769	0	
0	0	0	
0	0	0	
0	0	0	
0	0	0	
0	0	0	
0	0	0	
0	0	0	
0	0	0	
0	0	0	
0	0	0	
0	0	0	
0	0	0	
0	0	0	
0.018795	-0.0609769	0	
0.0210674	-0.0381985	0	
0.0188454	-0.0177406	0	
0.0173566	-3.44729e-011	0	
0.0162837	-3.19585e-011	0	
0.0165393	0.0209467	0	
0.0164403	0.0429823	0	
0.0142248	0.0659593	0	
0	0	0	
0	0	0	
0	0	0	
0	0	0	
0	0	0	
0	0	0	
0	0	0	
0	0	0	
0	0	0	
0	0	0	
0	0	0	
0	0	0	
0	0	0	
0.0142248	-0.0659593	0	
0.0164403	-0.0429823	0	
0.0165393	-0.0209467	0	
0.0162837	-3.19585e-011	0	
0.0129994	-2.66764e-011	0	
0.0128616	0.022516	0	
0.0121799	0.0453686	0	
0.0107271	0.0683241	0	
0	0	0	
0	0	0	
0	0	0	
0	0	0	
0	0	0	
0	0	0	
0	0	0	
0	0	0	
0	0	0	
0	0	0	
0	0	0	
0	0	0	
0	0	0	
0.0107271	-0.0683241	0	
0.0121799	-0.0453686	0	
0.0128616	-0.022516	0	
0.0129994	-2.66764e-011	0	
0.00885317	-1.91268e-011	0	
0.00866597	0.0231676	0	
0.00809309	0.0463358	0	
0.00731496	0.0693776	0	
0	0	0	
0	0	0	
0	0	0	
0	0	0	
0	0	0	
0	0	0	
0	0	0	
0	0	0	
0	0	0	
0	0	0	
0	0	0	
0	0	0	
0	0	0	
0.00731496	-0.0693776	0	
0.00809309	-0.0463358	0	
0.00866597	-0.0231676	0	
0.00885317	-1.91268e-011	0	
0.00444888	-9.96705e-012	0	
0.00434052	0.0233842	0	
0.00404574	0.0466635	0	
0.00372432	0.0697644	0	
0	0	0	
0	0	0	
0	0	0	
0	0	0	
0	0	0	
0	0	0	
0	0	0	
0	0	0	
0	0	0	
0	0	0	
0	0	0	
0	0	0	
0	0	0	
0.00372432	-0.0697644	0	
0.00404574	-0.0466635	0	
0.00434052	-0.0233842	0	
0.00444888	-9.96705e-012	0	
2.37615e-015	1.04301e-014	0	
-2.00595e-011	0.0234304	0	
-3.85236e-011	0.0467339	0	
-5.3958e-011	0.0698563	0	
0	0	0	
0	0	0	
0	0	0	
0	0	0	
0	0	0	
0	0	0	
0	0	0	
0	0	0	
0	0	0	
0	0	0	
0	0	0	
0	0	0	
0	0	0	
5.39627e-011	-0.0698563	0	
3.85283e-011	-0.0467339	0	
2.00643e-011	-0.0234304	0	
2.37615e-015	1.04301e-014	0	
-0.00444888	9.98778e-012	0	
-0.00434052	0.0233842	0	
-0.00404574	0.0466635	0	
-0.00372432	0.0697644	0	
0	0	0	
0	0	0	
0	0	0	
0	0	0	
0	0	0	
0	0	0	
0	0	0	
0	0	0	
0	0	0	
0	0	0	
0	0	0	
0	0	0	
0	0	0	
-0.00372432	-0.0697644	0	
-0.00404574	-0.0466635	0	
-0.00434052	-0.0233842	0	
-0.00444888	9.98778e-012	0	
-0.00885317	1.91473e-011	0	
-0.00866597	0.0231676	0	
-0.00809309	0.0463358	0	
-0.00731496	0.0693776	0	
0	0	0	
0	0	0	
0	0	0	
0	0	0	
0	0	0	
0	0	0	
0	0	0	
0	0	0	
0	0	0	
0	0	0	
0	0	0	
0	0	0	
0	0	0	
-0.00731496	-0.0693776	0	
-0.00809309	-0.0463358	0	
-0.00866597	-0.0231676	0	
-0.00885317	1.91473e-011	0	
-0.0129994	2.66965e-011	0	
-0.0128616	0.022516	0	
-0.0121799	0.0453686	0	
-0.0107271	0.0683241	0	
0	0	0	
0	0	0	
0	0	0	
0	0	0	
0	0	0	
0	0	0	
0	0	0	
0	0	0	
0	0	0	
0	0	0	
0	0	0	
0	0	0	
0	0	0	
-0.0107271	-0.0683241	0	
-0.0121799	-0.0453686	0	
-0.0128616	-0.022516	0	
-0.0129994	2.66965e-011	0	
-0.0162837	3.19782e-011	0	
-0.0165393	0.0209467	0	
-0.0164403	0.0429823	0	
-0.0142248	0.0659593	0	
0	0	0	
0	0	0	
0	0	0	
0	0	0	
0	0	0	
0	0	0	
0	0	0	
0	0	0	
0	0	0	
0	0	0	
0	0	0	
0	0	0	
0	0	0	
-0.0142248	-0.0659593	0	
-0.0164403	-0.0429823	0	
-0.0165393	-0.0209467	0	
-0.0162837	3.19782e-011	0	
-0.0173566	3.4492e-011	0	
-0.0188454	0.0177406	0	
-0.0210674	0.0381985	0	
-0.018795	0.0609769	0	
0	0	0	
0	0	0	
0	0	0	
0	0	0	
0	0	0	
0	0	0	
0	0	0	
0	0	0	
0	0	0	
0	0	0	
0	0	0	
0	0	0	
0	0	0	
-0.018795	-0.0609769	0	
-0.0210674	-0.0381985	0	
-0.0188454	-0.0177406	0	
-0.0173566	3.4492e-011	0	
-0.0154414	3.40286e-011	0	
-0.0175178	0.0141873	0	
-0.0256248	0.0288581	0	
-0.0284132	0.0534833	0	
0	0	0	
0	0	0	
0	0	0	
0	0	0	
0	0	0	
0	0	0	
0	0	0	
0	0	0	
0	0	0	
0	0	0	
0	0	0	
0	0	0	
0	0	0	
-0.0284132	-0.0534833	0	
-0.0256248	-0.0288581	0	
-0.0175178	-0.0141873	0	
-0.0154414	3.40286e-011	0	
-0.0108435	3.03995e-011	0	
-0.0133116	0.0133163	0	
-0.0210615	0.0244724	0	
-0.0527501	0.0330643	0	
-0.129612	0.0242563	0	
-0.151109	0.0250827	0	
-0.160156	0.0249295	0	
-0.162575	0.0214174	0	
-0.162771	0.0154629	0	
-0.162435	0.0080514	0	
-0.162267	1.12424e-010	0	
-0.162435	-0.0080514	0	
-0.162771	-0.0154629	0	
-0.162575	-0.0214174	0	
-0.160156	-0.0249295	0	
-0.151109	-0.0250827	0	
-0.129612	-0.0242563	0	
-0.0527501	-0.0330643	0	
-0.0210615	-0.0244724	0	
-0.0133116	-0.0133163	0	
-0.0108435	3.03995e-011	0	
-0.00606303	2.3342e-011	0	
-0.0078525	0.0163406	0	
-0.016209	0.0327331	0	
-0.039596	0.0465206	0	
-0.0774486	0.0495968	0	
-0.100542	0.0404348	0	
-0.107934	0.0324235	0	
-0.109684	0.0246057	0	
-0.109414	0.0165913	0	
-0.108864	0.00835515	0	
-0.108633	7.8836e-011	0	
-0.108864	-0.00835515	0	
-0.109414	-0.0165913	0	
-0.109684	-0.0246057	0	
-0.107934	-0.0324235	0	
-0.100542	-0.0404348	0	
-0.0774486	-0.0495968	0	
-0.039596	-0.0465206	0	
-0.016209	-0.0327331	0	
-0.0078525	-0.0163406	0	
-0.00606303	2.3342e-011	0	
-0.00244052	1.28148e-011	0	
-0.00374019	0.0196484	0	
-0.00911052	0.0379839	0	
-0.021046	0.0513993	0	
-0.0369679	0.0549703	0	
-0.0488618	0.0493786	0	
-0.0541558	0.0391126	0	
-0.0552812	0.0285574	0	
-0.0550873	0.018548	0	
-0.054703	0.00911697	0	
-0.0545439	4.0679e-011	0	
-0.054703	-0.00911697	0	
-0.0550873	-0.018548	0	
-0.0552812	-0.0285574	0	
-0.0541558	-0.0391126	0	
-0.0488618	-0.0493786	0	
-0.0369679	-0.0549703	0	
-0.021046	-0.0513993	0	
-0.00911052	-0.0379839	0	
-0.00374019	-0.0196484	0	
-0.00244052	1.28148e-011	0	
3.09527e-015	8.19896e-015	0	
-2.28107e-011	0.0207578	0	
-4.43299e-011	0.0394408	0	
-6.25806e-011	0.0524548	0	
-7.48257e-011	0.0564966	0	
-7.88241e-011	0.051552	0	
-7.41789e-011	0.041544	0	
-6.21155e-011	0.0301723	0	
-4.44583e-011	0.0194239	0	
-2.31353e-011	0.00947889	0	
4.58212e-015	6.78214e-015	0	
2.31443e-011	-0.00947889	0	
4.44672e-011	-0.0194239	0	
6.2124e-011	-0.0301723	0	
7.41872e-011	-0.041544	0	
7.88319e-011	-0.051552	0	
7.48332e-011	-0.0564966	0	
6.25877e-011	-0.0524548	0	
4.43365e-011	-0.0394408	0	
2.28171e-011	-0.0207578	0	
3.09527e-015	8.19896e-015	0	
VECTORS chi1 float
1.66677e-015	1.96048e-014	0	
-1.28046e-011	0.00244052	0	
-2.33315e-011	0.00606303	0	
-3.03884e-011	0.0108435	0	
-3.4017e-011	0.0154414	0	
-3.44801e-011	0.0173566	0	
-3.1966e-011	0.0162837	0	
-2.66842e-011	0.0129994	0	
-1.91348e-011	0.00885317	0	
-9.97525e-012	0.00444888	0	
2.05714e-015	1.59828e-014	0	
9.97934e-012	-0.00444888	0	
1.91389e-011	-0.00885317	0	
2.66882e-011	-0.0129994	0	
3.19699e-011	-0.0162837	0	
3.4484e-011	-0.0173566	0	
3.40208e-011	-0.0154414	0	
3.03921e-011	-0.0108435	0	
2.3335e-011	-0.00606303	0	
1.2808e-011	-0.00244052	0	
1.66677e-015	1.96048e-014	0	
0.0207578	-2.27939e-011	0	
0.0196484	0.00374019	0	
0.0163406	0.0078525	0	
0.0133163	0.0133116	0	
0.0141873	0.0175178	0	
0.0177406	0.0188454	0	
0.0209467	0.0165393	0	
0.022516	0.0128616	0	
0.0231676	0.00866597	0	
0.0233842	0.00434052	0	
0.0234304	-2.00459e-011	0	
0.0233842	-0.00434052	0	
0.0231676	-0.00866597	0	
0.022516	-0.0128616	0	
0.0209467	-0.0165393	0	
0.0177406	-0.0188454	0	
0.0141873	-0.0175178	0	
0.0133163	-0.0133116	0	
0.0163406	-0.0078525	0	
0.0196484	-0.00374019	0	
0.0207578	-2.27939e-011	0	
0.0394408	-4.43129e-011	0	
0.0379839	0.00911052	0	
0.0327331	0.016209	0	
0.0244724	0.0210615	0	
0.0288581	0.0256248	0	
0.0381985	0.0210674	0	
0.0429823	0.0164403	0	
0.0453686	0.0121799	0	
0.0463358	0.00809309	0	
0.0466635	0.00404574	0	
0.0467339	-3.851e-011	0	
0.0466635	-0.00404574	0	
0.0463358	-0.00809309	0	
0.0453686	-0.0121799	0	
0.0429823	-0.0164403	0	
0.0381985	-0.0210674	0	
0.0288581	-0.0256248	0	
0.0244724	-0.0210615	0	
0.0327331	-0.016209	0	
0.0379839	-0.00911052	0	
0.0394408	-4.43129e-011	0	
0.0524548	-6.25629e-011	0	
0.0513993	0.021046	0	
0.0465206	0.039596	0	
0.0330643	0.0527501	0	
0.0534833	0.0284132	0	
0.0609769	0.018795	0	
0.0659593	0.0142248	0	
0.0683241	0.0107271	0	
0.0693776	0.00731496	0	
0.0697644	0.00372432	0	
0.0698563	-5.39444e-011	0	
0.0697644	-0.00372432	0	
0.0693776	-0.00731496	0	
0.0683241	-0.0107271	0	
0.0659593	-0.0142248	0	
0.0609769	-0.018795	0	
0.0534833	-0.0284132	0	
0.0330643	-0.0527501	0	
0.0465206	-0.039596	0	
0.0513993	-0.021046	0	
0.0524548	-6.25629e-011	0	
0.0564966	-7.48073e-011	0	
0.0549703	0.0369679	0	
0.0495968	0.0774486	0	
0.0242563	0.129612	0	
0	0	0	
0	0	0	
0	0	0	
0	0	0	
0	0	0	
0	0	0	
0	0	0	
0	0	0	
0	0	0	
0	0	0	
0	0	0	
0	0	0	
0	0	0	
0.0242563	-0.129612	0	
0.0495968	-0.0774486	0	
0.0549703	-0.0369679	0	
0.0564966	-7.48073e-011	0	
0.051552	-7.88051e-011	0	
0.0493786	0.0488618	0	
0.0404348	0.100542	0	
0.0250827	0.151109	0	
0	0	0	
0	0	0	
0	0	0	
0	0	0	
0	0	0	
0	0	0	
0	0	0	
0	0	0	
0	0	0	
0	0	0	
0	0	0	
0	0	0	
0	0	0	
0.0250827	-0.151109	0	
0.0404348	-0.100542	0	
0.0493786	-0.0488618	0	
0.051552	-7.88051e-011	0	
0.041544	-7.41594e-011	0	
0.0391126	0.0541558	0	
0.0324235	0.107934	0	
0.0249295	0.160156	0	
0	0	0	
0	0	0	
0	0	0	
0	0	0	
0	0	0	
0	0	0	
0	0	0	
0	0	0	
0	0	0	
0	0	0	
0	0	0	
0	0	0	
0	0	0	
0.0249295	-0.160156	0	
0.0324235	-0.107934	0	
0.0391126	-0.0541558	0	
0.041544	-7.41594e-011	0	
0.0301723	-6.20956e-011	0	
0.0285574	0.0552812	0	
0.0246057	0.109684	0	
0.0214174	0.162575	0	
0	0	0	
0	0	0	
0	0	0	
0	0	0	
0	0	0	
0	0	0	
0	0	0	
0	0	0	
0	0	0	
0	0	0	
0	0	0	
0	0	0	
0	0	0	
0.0214174	-0.162575	0	
0.0246057	-0.109684	0	
0.0285574	-0.0552812	0	
0.0301723	-6.20956e-011	0	
0.0194239	-4.44379e-011	0	
0.018548	0.0550873	0	
0.0165913	0.109414	0	
0.0154629	0.162771	0	
0	0	0	
0	0	0	
0	0	0	
0	0	0	
0	0	0	
0	0	0	
0	0	0	
0	0	0	
0	0	0	
0	0	0	
0	0	0	
0	0	0	
0	0	0	
0.0154629	-0.162771	0	
0.0165913	-0.109414	0	
0.018548	-0.0550873	0	
0.0194239	-4.44379e-011	0	
0.00947889	-2.31146e-011	0	
0.00911697	0.054703	0	
0.00835515	0.108864	0	
0.0080514	0.162435	0	
0	0	0	
0	0	0	
0	0	0	
0	0	0	
0	0	0	
0	0	0	
0	0	0	
0	0	0	
0	0	0	
0	0	0	
0	0	0	
0	0	0	
0	0	0	
0.0080514	-0.162435	0	
0.00835515	-0.108864	0	
0.00911697	-0.054703	0	
0.00947889	-2.31146e-011	0	
1.43892e-015	2.54313e-014	0	
-4.06708e-011	0.0545439	0	
-7.88277e-011	0.108633	0	
-1.12415e-010	0.162267	0	
0	0	0	
0	0	0	
0	0	0	
0	0	0	
0	0	0	
0	0	0	
0	0	0	
0	0	0	
0	0	0	
0	0	0	
0	0	0	
0	0	0	
0	0	0	
1.12418e-010	-0.162267	0	
7.88305e-011	-0.108633	0	
4.06736e-011	-0.0545439	0	
1.43892e-015	2.54313e-014	0	
-0.00947889	2.31652e-011	0	
-0.00911697	0.054703	0	
-0.00835515	0.108864	0	
-0.0080514	0.162435	0	
0	0	0	
0	0	0	
0	0	0	
0	0	0	
0	0	0	
0	0	0	
0	0	0	
0	0	0	
0	0	0	
0	0	0	
0	0	0	
0	0	0	
0	0	0	
-0.0080514	-0.162435	0	
-0.00835515	-0.108864	0	
-0.00911697	-0.054703	0	
-0.00947889	2.31652e-011	0	
-0.0194239	4.4488e-011	0	
-0.018548	0.0550873	0	
-0.0165913	0.109414	0	
-0.0154629	0.162771	0	
0	0	0	
0	0	0	
0	0	0	
0	0	0	
0	0	0	
0	0	0	
0	0	0	
0	0	0	
0	0	0	
0	0	0	
0	0	0	
0	0	0	
0	0	0	
-0.0154629	-0.162771	0	
-0.0165913	-0.109414	0	
-0.018548	-0.0550873	0	
-0.0194239	4.4488e-011	0	
-0.0301723	6.21445e-011	0	
-0.0285574	0.0552812	0	
-0.0246057	0.109684	0	
-0.0214174	0.162575	0	
0	0	0	
0	0	0	
0	0	0	
0	0	0	
0	0	0	
0	0	0	
0	0	0	
0	0	0	
0	0	0	
0	0	0	
0	0	0	
0	0	0	
0	0	0	
-0.0214174	-0.162575	0	
-0.0246057	-0.109684	0	
-0.0285574	-0.0552812	0	
-0.0301723	6.21445e-011	0	
-0.041544	7.42075e-011	0	
-0.0391126	0.0541558	0	
-0.0324235	0.107934	0	
-0.0249295	0.160156	0	
0	0	0	
0	0	0	
0	0	0	
0	0	0	
0	0	0	
0	0	0	
0	0	0	
0	0	0	
0	0	0	
0	0	0	
0	0	0	
0	0	0	
0	0	0	
-0.0249295	-0.160156	0	
-0.0324235	-0.107934	0	
-0.0391126	-0.0541558	0	
-0.041544	7.42075e-011	0	
-0.051552	7.88517e-011	0	
-0.0493786	0.0488618	0	
-0.0404348	0.100542	0	
-0.0250827	0.151109	0	
0	0	0	
0	0	0	
0	0	0	
0	0	0	
0	0	0	
0	0	0	
0	0	0	
0	0	0	
0	0	0	
0	0	0	
0	0	0	
0	0	0	
0	0	0	
-0.0250827	-0.151109	0	
-0.0404348	-0.100542	0	
-0.0493786	-0.0488618	0	
-0.051552	7.88517e-011	0	
-0.0564966	7.48524e-011	0	
-0.0549703	0.0369679	0	
-0.0495968	0.0774486	0	
-0.0242563	0.129612	0	
0	0	0	
0	0	0	
0	0	0	
0	0	0	
0	0	0	
0	0	0	
0	0	0	
0	0	0	
0	0	0	
0	0	0	
0	0	0	
0	0	0	
0	0	0	
-0.0242563	-0.129612	0	
-0.0495968	-0.0774486	0	
-0.0549703	-0.0369679	0	
-0.0564966	7.48524e-011	0	
-0.0524548	6.26061e-011	0	
-0.0513993	0.021046	0	
-0.0465206	0.039596	0	
-0.0330643	0.0527501	0	
-0.0534833	0.0284132	0	
-0.0609769	0.018795	0	
-0.0659593	0.0142248	0	
-0.0683241	0.0107271	0	
-0.0693776	0.00731496	0	
-0.0697644	0.00372432	0	
-0.0698563	5.39765e-011	0	
-0.0697644	-0.00372432	0	
-0.0693776	-0.00731496	0	
-0.0683241	-0.0107271	0	
-0.0659593	-0.0142248	0	
-0.0609769	-0.018795	0	
-0.0534833	-0.0284132	0	
-0.0330643	-0.0527501	0	
-0.0465206	-0.039596	0	
-0.0513993	-0.021046	0	
-0.0524548	6.26061e-011	0	
-0.0394408	4.4354e-011	0	
-0.0379839	0.00911052	0	
-0.0327331	0.016209	0	
-0.0244724	0.0210615	0	
-0.0288581	0.0256248	0	
-0.0381985	0.0210674	0	
-0.0429823	0.0164403	0	
-0.0453686	0.0121799	0	
-0.0463358	0.00809309	0	
-0.0466635	0.00404574	0	
-0.0467339	3.85419e-011	0	
-0.0466635	-0.00404574	0	
-0.0463358	-0.00809309	0	
-0.0453686	-0.0121799	0	
-0.0429823	-0.0164403	0	
-0.0381985	-0.0210674	0	
-0.0288581	-0.0256248	0	
-0.0244724	-0.0210615	0	
-0.0327331	-0.016209	0	
-0.0379839	-0.00911052	0	
-0.0394408	4.4354e-011	0	
-0.0207578	2.28341e-011	0	
-0.0196484	0.00374019	0	
-0.0163406	0.0078525	0	
-0.0133163	0.0133116	0	
-0.0141873	0.0175178	0	
-0.0177406	0.0188454	0	
-0.0209467	0.0165393	0	
-0.022516	0.0128616	0	
-0.0231676	0.00866597	0	
-0.0233842	0.00434052	0	
-0.0234304	2.00779e-011	0	
-0.0233842	-0.00434052	0	
-0.0231676	-0.00866597	0	
-0.022516	-0.0128616	0	
-0.0209467	-0.0165393	0	
-0.0177406	-0.0188454	0	
-0.0141873	-0.0175178	0	
-0.0133163	-0.0133116	0	
-0.0163406	-0.0078525	0	
-0.0196484	-0.00374019	0	
-0.0207578	2.28341e-011	0	
1.66677e-015	1.96048e-014	0	
-1.28046e-011	0.00244052	0	
-2.33315e-011	0.00606303	0	
-3.03884e-011	0.0108435	0	
-3.4017e-011	0.0154414	0	
-3.44801e-011	0.0173566	0	
-3.1966e-011	0.0162837	0	
-2.66842e-011	0.0129994	0	
-1.91348e-011	0.00885317	0	
-9.97525e-012	0.00444888	0	
2.05714e-015	1.59828e-014	0	
9.97934e-012	-0.00444888	0	
1.91389e-011	-0.00885317	0	
2.66882e-011	-0.0129994	0	
3.19699e-011	-0.0162837	0	
3.4484e-011	-0.0173566	0	
3.40208e-011	-0.0154414	0	
3.03921e-011	-0.0108435	0	
2.3335e-011	-0.00606303	0	
1.2808e-011	-0.00244052	0	
1.66677e-015	1.96048e-014	0	
VECTORS chi2 float
4.47488e-014	-1.52768e-016	0	
0.0368004	-9.81028e-012	0	
0.0680635	-1.86993e-011	0	
0.0887127	-2.59957e-011	0	
0.0962392	-3.11123e-011	0	
0.0924723	-3.34368e-011	0	
0.0809883	-3.24581e-011	0	
0.0645455	-2.79375e-011	0	
0.044827	-2.04736e-011	0	
0.0229508	-1.07724e-011	0	
5.30339e-014	-1.00328e-016	0	
-0.0229508	1.07728e-011	0	
-0.044827	2.04734e-011	0	
-0.0645455	2.79379e-011	0	
-0.0809883	3.24579e-011	0	
-0.0924723	3.34371e-011	0	
-0.0962392	3.1112e-011	0	
-0.0887127	2.59959e-011	0	
-0.0680635	1.8699e-011	0	
-0.0368004	9.81031e-012	0	
4.47488e-014	-1.52768e-016	0	
-9.85566e-012	0.0368004	0	
0.037259	0.037259	0	
0.0693476	0.0382215	0	
0.0902582	0.0392362	0	
0.0966869	0.0416958	0	
0.0918236	0.045762	0	
0.0800175	0.0505732	0	