# vtk DataFile Version 4.1
vtk output
ASCII
DATASET UNSTRUCTURED_GRID

POINTS	1111	float
0	0	0	
0	1	0	
0	2	0	
0	3	0	
0	4	0	
0	5	0	
0	6	0	
0	7	0	
0	8	0	
0	9	0	
0	10	0	
1	0	0	
1	1	0	
1	2	0	
1	3	0	
1	4	0	
1	5	0	
1	6	0	
1	7	0	
1	8	0	
1	9	0	
1	10	0	
2	0	0	
2	1	0	
2	2	0	
2	3	0	
2	4	0	
2	5	0	
2	6	0	
2	7	0	
2	8	0	
2	9	0	
2	10	0	
3	0	0	
3	1	0	
3	2	0	
3	3	0	
3	4	0	
3	5	0	
3	6	0	
3	7	0	
3	8	0	
3	9	0	
3	10	0	
4	0	0	
4	1	0	
4	2	0	
4	3	0	
4	4	0	
4	5	0	
4	6	0	
4	7	0	
4	8	0	
4	9	0	
4	10	0	
5	0	0	
5	1	0	
5	2	0	
5	3	0	
5	4	0	
5	5	0	
5	6	0	
5	7	0	
5	8	0	
5	9	0	
5	10	0	
6	0	0	
6	1	0	
6	2	0	
6	3	0	
6	4	0	
6	5	0	
6	6	0	
6	7	0	
6	8	0	
6	9	0	
6	10	0	
7	0	0	
7	1	0	
7	2	0	
7	3	0	
7	4	0	
7	5	0	
7	6	0	
7	7	0	
7	8	0	
7	9	0	
7	10	0	
8	0	0	
8	1	0	
8	2	0	
8	3	0	
8	4	0	
8	5	0	
8	6	0	
8	7	0	
8	8	0	
8	9	0	
8	10	0	
9	0	0	
9	1	0	
9	2	0	
9	3	0	
9	4	0	
9	5	0	
9	6	0	
9	7	0	
9	8	0	
9	9	0	
9	10	0	
10	0	0	
10	1	0	
10	2	0	
10	3	0	
10	4	0	
10	5	0	
10	6	0	
10	7	0	
10	8	0	
10	9	0	
10	10	0	
11	0	0	
11	1	0	
11	2	0	
11	3	0	
11	4	0	
11	5	0	
11	6	0	
11	7	0	
11	8	0	
11	9	0	
11	10	0	
12	0	0	
12	1	0	
12	2	0	
12	3	0	
12	4	0	
12	5	0	
12	6	0	
12	7	0	
12	8	0	
12	9	0	
12	10	0	
13	0	0	
13	1	0	
13	2	0	
13	3	0	
13	4	0	
13	5	0	
13	6	0	
13	7	0	
13	8	0	
13	9	0	
13	10	0	
14	0	0	
14	1	0	
14	2	0	
14	3	0	
14	4	0	
14	5	0	
14	6	0	
14	7	0	
14	8	0	
14	9	0	
14	10	0	
15	0	0	
15	1	0	
15	2	0	
15	3	0	
15	4	0	
15	5	0	
15	6	0	
15	7	0	
15	8	0	
15	9	0	
15	10	0	
16	0	0	
16	1	0	
16	2	0	
16	3	0	
16	4	0	
16	5	0	
16	6	0	
16	7	0	
16	8	0	
16	9	0	
16	10	0	
17	0	0	
17	1	0	
17	2	0	
17	3	0	
17	4	0	
17	5	0	
17	6	0	
17	7	0	
17	8	0	
17	9	0	
17	10	0	
18	0	0	
18	1	0	
18	2	0	
18	3	0	
18	4	0	
18	5	0	
18	6	0	
18	7	0	
18	8	0	
18	9	0	
18	10	0	
19	0	0	
19	1	0	
19	2	0	
19	3	0	
19	4	0	
19	5	0	
19	6	0	
19	7	0	
19	8	0	
19	9	0	
19	10	0	
20	0	0	
20	1	0	
20	2	0	
20	3	0	
20	4	0	
20	5	0	
20	6	0	
20	7	0	
20	8	0	
20	9	0	
20	10	0	
21	0	0	
21	1	0	
21	2	0	
21	3	0	
21	4	0	
21	5	0	
21	6	0	
21	7	0	
21	8	0	
21	9	0	
21	10	0	
22	0	0	
22	1	0	
22	2	0	
22	3	0	
22	4	0	
22	5	0	
22	6	0	
22	7	0	
22	8	0	
22	9	0	
22	10	0	
23	0	0	
23	1	0	
23	2	0	
23	3	0	
23	4	0	
23	5	0	
23	6	0	
23	7	0	
23	8	0	
23	9	0	
23	10	0	
24	0	0	
24	1	0	
24	2	0	
24	3	0	
24	4	0	
24	5	0	
24	6	0	
24	7	0	
24	8	0	
24	9	0	
24	10	0	
25	0	0	
25	1	0	
25	2	0	
25	3	0	
25	4	0	
25	5	0	
25	6	0	
25	7	0	
25	8	0	
25	9	0	
25	10	0	
26	0	0	
26	1	0	
26	2	0	
26	3	0	
26	4	0	
26	5	0	
26	6	0	
26	7	0	
26	8	0	
26	9	0	
26	10	0	
27	0	0	
27	1	0	
27	2	0	
27	3	0	
27	4	0	
27	5	0	
27	6	0	
27	7	0	
27	8	0	
27	9	0	
27	10	0	
28	0	0	
28	1	0	
28	2	0	
28	3	0	
28	4	0	
28	5	0	
28	6	0	
28	7	0	
28	8	0	
28	9	0	
28	10	0	
29	0	0	
29	1	0	
29	2	0	
29	3	0	
29	4	0	
29	5	0	
29	6	0	
29	7	0	
29	8	0	
29	9	0	
29	10	0	
30	0	0	
30	1	0	
30	2	0	
30	3	0	
30	4	0	
30	5	0	
30	6	0	
30	7	0	
30	8	0	
30	9	0	
30	10	0	
31	0	0	
31	1	0	
31	2	0	
31	3	0	
31	4	0	
31	5	0	
31	6	0	
31	7	0	
31	8	0	
31	9	0	
31	10	0	
32	0	0	
32	1	0	
32	2	0	
32	3	0	
32	4	0	
32	5	0	
32	6	0	
32	7	0	
32	8	0	
32	9	0	
32	10	0	
33	0	0	
33	1	0	
33	2	0	
33	3	0	
33	4	0	
33	5	0	
33	6	0	
33	7	0	
33	8	0	
33	9	0	
33	10	0	
34	0	0	
34	1	0	
34	2	0	
34	3	0	
34	4	0	
34	5	0	
34	6	0	
34	7	0	
34	8	0	
34	9	0	
34	10	0	
35	0	0	
35	1	0	
35	2	0	
35	3	0	
35	4	0	
35	5	0	
35	6	0	
35	7	0	
35	8	0	
35	9	0	
35	10	0	
36	0	0	
36	1	0	
36	2	0	
36	3	0	
36	4	0	
36	5	0	
36	6	0	
36	7	0	
36	8	0	
36	9	0	
36	10	0	
37	0	0	
37	1	0	
37	2	0	
37	3	0	
37	4	0	
37	5	0	
37	6	0	
37	7	0	
37	8	0	
37	9	0	
37	10	0	
38	0	0	
38	1	0	
38	2	0	
38	3	0	
38	4	0	
38	5	0	
38	6	0	
38	7	0	
38	8	0	
38	9	0	
38	10	0	
39	0	0	
39	1	0	
39	2	0	
39	3	0	
39	4	0	
39	5	0	
39	6	0	
39	7	0	
39	8	0	
39	9	0	
39	10	0	
40	0	0	
40	1	0	
40	2	0	
40	3	0	
40	4	0	
40	5	0	
40	6	0	
40	7	0	
40	8	0	
40	9	0	
40	10	0	
41	0	0	
41	1	0	
41	2	0	
41	3	0	
41	4	0	
41	5	0	
41	6	0	
41	7	0	
41	8	0	
41	9	0	
41	10	0	
42	0	0	
42	1	0	
42	2	0	
42	3	0	
42	4	0	
42	5	0	
42	6	0	
42	7	0	
42	8	0	
42	9	0	
42	10	0	
43	0	0	
43	1	0	
43	2	0	
43	3	0	
43	4	0	
43	5	0	
43	6	0	
43	7	0	
43	8	0	
43	9	0	
43	10	0	
44	0	0	
44	1	0	
44	2	0	
44	3	0	
44	4	0	
44	5	0	
44	6	0	
44	7	0	
44	8	0	
44	9	0	
44	10	0	
45	0	0	
45	1	0	
45	2	0	
45	3	0	
45	4	0	
45	5	0	
45	6	0	
45	7	0	
45	8	0	
45	9	0	
45	10	0	
46	0	0	
46	1	0	
46	2	0	
46	3	0	
46	4	0	
46	5	0	
46	6	0	
46	7	0	
46	8	0	
46	9	0	
46	10	0	
47	0	0	
47	1	0	
47	2	0	
47	3	0	
47	4	0	
47	5	0	
47	6	0	
47	7	0	
47	8	0	
47	9	0	
47	10	0	
48	0	0	
48	1	0	
48	2	0	
48	3	0	
48	4	0	
48	5	0	
48	6	0	
48	7	0	
48	8	0	
48	9	0	
48	10	0	
49	0	0	
49	1	0	
49	2	0	
49	3	0	
49	4	0	
49	5	0	
49	6	0	
49	7	0	
49	8	0	
49	9	0	
49	10	0	
50	0	0	
50	1	0	
50	2	0	
50	3	0	
50	4	0	
50	5	0	
50	6	0	
50	7	0	
50	8	0	
50	9	0	
50	10	0	
51	0	0	
51	1	0	
51	2	0	
51	3	0	
51	4	0	
51	5	0	
51	6	0	
51	7	0	
51	8	0	
51	9	0	
51	10	0	
52	0	0	
52	1	0	
52	2	0	
52	3	0	
52	4	0	
52	5	0	
52	6	0	
52	7	0	
52	8	0	
52	9	0	
52	10	0	
53	0	0	
53	1	0	
53	2	0	
53	3	0	
53	4	0	
53	5	0	
53	6	0	
53	7	0	
53	8	0	
53	9	0	
53	10	0	
54	0	0	
54	1	0	
54	2	0	
54	3	0	
54	4	0	
54	5	0	
54	6	0	
54	7	0	
54	8	0	
54	9	0	
54	10	0	
55	0	0	
55	1	0	
55	2	0	
55	3	0	
55	4	0	
55	5	0	
55	6	0	
55	7	0	
55	8	0	
55	9	0	
55	10	0	
56	0	0	
56	1	0	
56	2	0	
56	3	0	
56	4	0	
56	5	0	
56	6	0	
56	7	0	
56	8	0	
56	9	0	
56	10	0	
57	0	0	
57	1	0	
57	2	0	
57	3	0	
57	4	0	
57	5	0	
57	6	0	
57	7	0	
57	8	0	
57	9	0	
57	10	0	
58	0	0	
58	1	0	
58	2	0	
58	3	0	
58	4	0	
58	5	0	
58	6	0	
58	7	0	
58	8	0	
58	9	0	
58	10	0	
59	0	0	
59	1	0	
59	2	0	
59	3	0	
59	4	0	
59	5	0	
59	6	0	
59	7	0	
59	8	0	
59	9	0	
59	10	0	
60	0	0	
60	1	0	
60	2	0	
60	3	0	
60	4	0	
60	5	0	
60	6	0	
60	7	0	
60	8	0	
60	9	0	
60	10	0	
61	0	0	
61	1	0	
61	2	0	
61	3	0	
61	4	0	
61	5	0	
61	6	0	
61	7	0	
61	8	0	
61	9	0	
61	10	0	
62	0	0	
62	1	0	
62	2	0	
62	3	0	
62	4	0	
62	5	0	
62	6	0	
62	7	0	
62	8	0	
62	9	0	
62	10	0	
63	0	0	
63	1	0	
63	2	0	
63	3	0	
63	4	0	
63	5	0	
63	6	0	
63	7	0	
63	8	0	
63	9	0	
63	10	0	
64	0	0	
64	1	0	
64	2	0	
64	3	0	
64	4	0	
64	5	0	
64	6	0	
64	7	0	
64	8	0	
64	9	0	
64	10	0	
65	0	0	
65	1	0	
65	2	0	
65	3	0	
65	4	0	
65	5	0	
65	6	0	
65	7	0	
65	8	0	
65	9	0	
65	10	0	
66	0	0	
66	1	0	
66	2	0	
66	3	0	
66	4	0	
66	5	0	
66	6	0	
66	7	0	
66	8	0	
66	9	0	
66	10	0	
67	0	0	
67	1	0	
67	2	0	
67	3	0	
67	4	0	
67	5	0	
67	6	0	
67	7	0	
67	8	0	
67	9	0	
67	10	0	
68	0	0	
68	1	0	
68	2	0	
68	3	0	
68	4	0	
68	5	0	
68	6	0	
68	7	0	
68	8	0	
68	9	0	
68	10	0	
69	0	0	
69	1	0	
69	2	0	
69	3	0	
69	4	0	
69	5	0	
69	6	0	
69	7	0	
69	8	0	
69	9	0	
69	10	0	
70	0	0	
70	1	0	
70	2	0	
70	3	0	
70	4	0	
70	5	0	
70	6	0	
70	7	0	
70	8	0	
70	9	0	
70	10	0	
71	0	0	
71	1	0	
71	2	0	
71	3	0	
71	4	0	
71	5	0	
71	6	0	
71	7	0	
71	8	0	
71	9	0	
71	10	0	
72	0	0	
72	1	0	
72	2	0	
72	3	0	
72	4	0	
72	5	0	
72	6	0	
72	7	0	
72	8	0	
72	9	0	
72	10	0	
73	0	0	
73	1	0	
73	2	0	
73	3	0	
73	4	0	
73	5	0	
73	6	0	
73	7	0	
73	8	0	
73	9	0	
73	10	0	
74	0	0	
74	1	0	
74	2	0	
74	3	0	
74	4	0	
74	5	0	
74	6	0	
74	7	0	
74	8	0	
74	9	0	
74	10	0	
75	0	0	
75	1	0	
75	2	0	
75	3	0	
75	4	0	
75	5	0	
75	6	0	
75	7	0	
75	8	0	
75	9	0	
75	10	0	
76	0	0	
76	1	0	
76	2	0	
76	3	0	
76	4	0	
76	5	0	
76	6	0	
76	7	0	
76	8	0	
76	9	0	
76	10	0	
77	0	0	
77	1	0	
77	2	0	
77	3	0	
77	4	0	
77	5	0	
77	6	0	
77	7	0	
77	8	0	
77	9	0	
77	10	0	
78	0	0	
78	1	0	
78	2	0	
78	3	0	
78	4	0	
78	5	0	
78	6	0	
78	7	0	
78	8	0	
78	9	0	
78	10	0	
79	0	0	
79	1	0	
79	2	0	
79	3	0	
79	4	0	
79	5	0	
79	6	0	
79	7	0	
79	8	0	
79	9	0	
79	10	0	
80	0	0	
80	1	0	
80	2	0	
80	3	0	
80	4	0	
80	5	0	
80	6	0	
80	7	0	
80	8	0	
80	9	0	
80	10	0	
81	0	0	
81	1	0	
81	2	0	
81	3	0	
81	4	0	
81	5	0	
81	6	0	
81	7	0	
81	8	0	
81	9	0	
81	10	0	
82	0	0	
82	1	0	
82	2	0	
82	3	0	
82	4	0	
82	5	0	
82	6	0	
82	7	0	
82	8	0	
82	9	0	
82	10	0	
83	0	0	
83	1	0	
83	2	0	
83	3	0	
83	4	0	
83	5	0	
83	6	0	
83	7	0	
83	8	0	
83	9	0	
83	10	0	
84	0	0	
84	1	0	
84	2	0	
84	3	0	
84	4	0	
84	5	0	
84	6	0	
84	7	0	
84	8	0	
84	9	0	
84	10	0	
85	0	0	
85	1	0	
85	2	0	
85	3	0	
85	4	0	
85	5	0	
85	6	0	
85	7	0	
85	8	0	
85	9	0	
85	10	0	
86	0	0	
86	1	0	
86	2	0	
86	3	0	
86	4	0	
86	5	0	
86	6	0	
86	7	0	
86	8	0	
86	9	0	
86	10	0	
87	0	0	
87	1	0	
87	2	0	
87	3	0	
87	4	0	
87	5	0	
87	6	0	
87	7	0	
87	8	0	
87	9	0	
87	10	0	
88	0	0	
88	1	0	
88	2	0	
88	3	0	
88	4	0	
88	5	0	
88	6	0	
88	7	0	
88	8	0	
88	9	0	
88	10	0	
89	0	0	
89	1	0	
89	2	0	
89	3	0	
89	4	0	
89	5	0	
89	6	0	
89	7	0	
89	8	0	
89	9	0	
89	10	0	
90	0	0	
90	1	0	
90	2	0	
90	3	0	
90	4	0	
90	5	0	
90	6	0	
90	7	0	
90	8	0	
90	9	0	
90	10	0	
91	0	0	
91	1	0	
91	2	0	
91	3	0	
91	4	0	
91	5	0	
91	6	0	
91	7	0	
91	8	0	
91	9	0	
91	10	0	
92	0	0	
92	1	0	
92	2	0	
92	3	0	
92	4	0	
92	5	0	
92	6	0	
92	7	0	
92	8	0	
92	9	0	
92	10	0	
93	0	0	
93	1	0	
93	2	0	
93	3	0	
93	4	0	
93	5	0	
93	6	0	
93	7	0	
93	8	0	
93	9	0	
93	10	0	
94	0	0	
94	1	0	
94	2	0	
94	3	0	
94	4	0	
94	5	0	
94	6	0	
94	7	0	
94	8	0	
94	9	0	
94	10	0	
95	0	0	
95	1	0	
95	2	0	
95	3	0	
95	4	0	
95	5	0	
95	6	0	
95	7	0	
95	8	0	
95	9	0	
95	10	0	
96	0	0	
96	1	0	
96	2	0	
96	3	0	
96	4	0	
96	5	0	
96	6	0	
96	7	0	
96	8	0	
96	9	0	
96	10	0	
97	0	0	
97	1	0	
97	2	0	
97	3	0	
97	4	0	
97	5	0	
97	6	0	
97	7	0	
97	8	0	
97	9	0	
97	10	0	
98	0	0	
98	1	0	
98	2	0	
98	3	0	
98	4	0	
98	5	0	
98	6	0	
98	7	0	
98	8	0	
98	9	0	
98	10	0	
99	0	0	
99	1	0	
99	2	0	
99	3	0	
99	4	0	
99	5	0	
99	6	0	
99	7	0	
99	8	0	
99	9	0	
99	10	0	
100	0	0	
100	1	0	
100	2	0	
100	3	0	
100	4	0	
100	5	0	
100	6	0	
100	7	0	
100	8	0	
100	9	0	
100	10	0	

CELLS 1000	5000
4	0	11	12	1	
4	1	12	13	2	
4	2	13	14	3	
4	3	14	15	4	
4	4	15	16	5	
4	5	16	17	6	
4	6	17	18	7	
4	7	18	19	8	
4	8	19	20	9	
4	9	20	21	10	
4	11	22	23	12	
4	12	23	24	13	
4	13	24	25	14	
4	14	25	26	15	
4	15	26	27	16	
4	16	27	28	17	
4	17	28	29	18	
4	18	29	30	19	
4	19	30	31	20	
4	20	31	32	21	
4	22	33	34	23	
4	23	34	35	24	
4	24	35	36	25	
4	25	36	37	26	
4	26	37	38	27	
4	27	38	39	28	
4	28	39	40	29	
4	29	40	41	30	
4	30	41	42	31	
4	31	42	43	32	
4	33	44	45	34	
4	34	45	46	35	
4	35	46	47	36	
4	36	47	48	37	
4	37	48	49	38	
4	38	49	50	39	
4	39	50	51	40	
4	40	51	52	41	
4	41	52	53	42	
4	42	53	54	43	
4	44	55	56	45	
4	45	56	57	46	
4	46	57	58	47	
4	47	58	59	48	
4	48	59	60	49	
4	49	60	61	50	
4	50	61	62	51	
4	51	62	63	52	
4	52	63	64	53	
4	53	64	65	54	
4	55	66	67	56	
4	56	67	68	57	
4	57	68	69	58	
4	58	69	70	59	
4	59	70	71	60	
4	60	71	72	61	
4	61	72	73	62	
4	62	73	74	63	
4	63	74	75	64	
4	64	75	76	65	
4	66	77	78	67	
4	67	78	79	68	
4	68	79	80	69	
4	69	80	81	70	
4	70	81	82	71	
4	71	82	83	72	
4	72	83	84	73	
4	73	84	85	74	
[...]
POINT_DATA	1111
VECTORS u float
-3.42307e-026	-5.77411e-015	0	
3.56758e-005	-6.92487e-006	0	
6.61483e-005	-1.09409e-005	0	
9.5371e-005	-1.3428e-005	0	
0.000124049	-1.50778e-005	0	
0.000152468	-1.61768e-005	0	
0.000180792	-1.68672e-005	0	
0.00020914	-1.72443e-005	0	
0.000237599	-1.73962e-005	0	
0.000266216	-1.74205e-005	0	
0.000294952	-1.74166e-005	0	
2.83192e-006	-4.09283e-005	0	
3.66066e-005	-4.09893e-005	0	
6.6951e-005	-4.19174e-005	0	
9.59951e-005	-4.31232e-005	0	
0.00012451	-4.41674e-005	0	
0.000152785	-4.49683e-005	0	
0.000180986	-4.55322e-005	0	
0.000209235	-4.58906e-005	0	
0.000237624	-4.60839e-005	0	
0.000266205	-4.61586e-005	0	
0.000294959	-4.61739e-005	0	
5.02999e-006	-7.27626e-005	0	
3.65132e-005	-7.32737e-005	0	
6.70009e-005	-7.32738e-005	0	
9.61813e-005	-7.35331e-005	0	
0.000124714	-7.3951e-005	0	
0.000152947	-7.43668e-005	0	
0.000181083	-7.47024e-005	0	
0.000209262	-7.49295e-005	0	
0.000237588	-7.50462e-005	0	
0.000266133	-7.50689e-005	0	
0.000294938	-7.5047e-005	0	
6.71946e-006	-0.000103316	0	
3.69987e-005	-0.000103721	0	
6.69393e-005	-0.000103821	0	
9.61323e-005	-0.000103819	0	
0.000124706	-0.000103894	0	
0.000152939	-0.00010402	0	
0.00018104	-0.000104139	0	
0.000209165	-0.000104211	0	
0.000237433	-0.000104215	0	
0.000265944	-0.000104156	0	
0.000294799	-0.000104065	0	
8.07799e-006	-0.000133104	0	
3.77078e-005	-0.000133527	0	
6.71382e-005	-0.000133704	0	
9.61101e-005	-0.000133725	0	
0.000124623	-0.000133698	0	
0.00015282	-0.000133676	0	
0.000180874	-0.000133648	0	
0.000208937	-0.000133593	0	
0.000237141	-0.000133493	0	
0.000265606	-0.000133347	0	
0.000294468	-0.000133171	0	
9.33267e-006	-0.000162502	0	
3.85373e-005	-0.000162944	0	
6.7544e-005	-0.000163197	0	
9.62269e-005	-0.000163282	0	
0.000124572	-0.000163266	0	
0.000152662	-0.000163196	0	
0.000180625	-0.000163093	0	
0.000208598	-0.000162954	0	
0.000236712	-0.000162773	0	
0.000265101	-0.000162547	0	
0.000293908	-0.00016228	0	
1.05932e-005	-0.000191604	0	
3.94645e-005	-0.000192082	0	
6.81079e-005	-0.000192397	0	
9.6483e-005	-0.000192551	0	
0.000124597	-0.000192578	0	
0.000152511	-0.000192514	0	
0.000180329	-0.000192384	0	
0.000208168	-0.000192198	0	
0.000236155	-0.000191957	0	
0.000264421	-0.000191661	0	
0.000293108	-0.000191305	0	
1.19262e-005	-0.00022044	0	
4.04932e-005	-0.000220963	0	
6.8801e-005	-0.000221336	0	
9.6861e-005	-0.000221553	0	
0.000124703	-0.00022163	0	
0.00015239	-0.000221592	0	
0.000180008	-0.000221462	0	
0.000207665	-0.000221251	0	
0.000235477	-0.000220967	0	
0.000263568	-0.000220608	0	
0.000292071	-0.000220168	0	
1.33713e-005	-0.000249004	0	
4.16326e-005	-0.000249581	0	
6.96092e-005	-0.00025001	0	
9.73439e-005	-0.000250282	0	
0.000124886	-0.000250407	0	
0.0001523	-0.000250401	0	
0.000179671	-0.00025028	0	
0.000207096	-0.000250057	0	
0.000234684	-0.000249738	0	
0.000262549	-0.000249323	0	
0.00029081	-0.000248805	0	
1.49535e-005	-0.000277275	0	
4.28915e-005	-0.000277911	0	
7.05263e-005	-0.000278394	0	
9.79196e-005	-0.000278717	0	
0.000125134	-0.000278886	0	
0.00015224	-0.00027891	0	
0.00017932	-0.000278801	0	
0.000206467	-0.000278569	0	
0.000233782	-0.00027822	0	
0.00026137	-0.000277753	0	
0.00028934	-0.000277161	0	
1.66884e-005	-0.000305223	0	
4.42766e-005	-0.000305921	0	
7.15495e-005	-0.000306458	0	
9.85798e-005	-0.000306828	0	
0.000125439	-0.000307035	0	
0.000152202	-0.000307085	0	
0.000178952	-0.000306987	0	
0.000205777	-0.000306747	0	
0.000232772	-0.00030637	0	
0.000260037	-0.000305853	0	
0.000287671	-0.000305191	0	
1.85852e-005	-0.000332813	0	
4.57923e-005	-0.000333576	0	
7.26773e-005	-0.000334165	0	
9.93189e-005	-0.00033458	0	
0.000125794	-0.000334821	0	
0.000152181	-0.000334893	0	
0.000178562	-0.000334803	0	
0.000205025	-0.000334554	0	
0.000231659	-0.000334148	0	
0.000258558	-0.000333583	0	
0.000285814	-0.000332856	0	
2.06489e-005	-0.000360009	0	
4.74413e-005	-0.000360837	0	
7.39086e-005	-0.000361479	0	
0.000100133	-0.000361935	0	
0.000126194	-0.000362208	0	
0.000152172	-0.000362299	0	
0.000178149	-0.000362213	0	
0.00020421	-0.000361953	0	
0.000230443	-0.000361518	0	
0.000256936	-0.000360908	0	
0.000283777	-0.000360117	0	
2.28818e-005	-0.000386774	0	
4.92245e-005	-0.000387668	0	
7.52424e-005	-0.000388362	0	
0.000101019	-0.000388858	0	
0.000126635	-0.000389158	0	
0.000152171	-0.000389266	0	
0.000177709	-0.000389183	0	
0.000203333	-0.00038891	0	
0.000229126	-0.000388447	0	
0.000255175	-0.000387792	0	
0.000281566	-0.000386941	0	
2.52839e-005	-0.000413071	0	
5.11417e-005	-0.000414029	0	
7.66775e-005	-0.000414775	0	
0.000101974	-0.00041531	0	
0.000127114	-0.000415637	0	
0.000152176	-0.000415758	0	
0.000177241	-0.000415676	0	
0.000202392	-0.00041539	0	
0.000227711	-0.000414899	0	
0.00025328	-0.000414201	0	
0.000279185	-0.000413292	0	
2.78538e-005	-0.000438863	0	
5.31917e-005	-0.000439886	0	
7.82123e-005	-0.000440681	0	
0.000102998	-0.000441254	0	
0.000127629	-0.000441606	0	
0.000152184	-0.00044174	0	
0.000176745	-0.000441658	0	
0.000201389	-0.000441359	0	
0.000226198	-0.000440841	0	
0.000251254	-0.000440101	0	
0.000276638	-0.000439135	0	
3.05891e-005	-0.000464115	0	
5.53725e-005	-0.0004652	0	
7.9845e-005	-0.000466045	0	
0.000104087	-0.000466654	0	
0.000128178	-0.00046703	0	
0.000152196	-0.000467177	0	
0.000176219	-0.000467094	0	
0.000200325	-0.000466781	0	
0.000224592	-0.000466237	0	
0.0002491	-0.000465457	0	
0.000273928	-0.000464437	0	
3.34863e-005	-0.000488791	0	
5.76815e-005	-0.000489938	0	
8.15734e-005	-0.000490831	0	
0.000105241	-0.000491475	0	
0.000128762	-0.000491874	0	
0.000152211	-0.000492032	0	
0.000175665	-0.000491949	0	
0.000199201	-0.000491624	0	
0.000222893	-0.000491054	0	
0.000246821	-0.000490235	0	
0.000271061	-0.000489163	0	
3.65415e-005	-0.000512857	0	
6.01153e-005	-0.000514064	0	
8.33952e-005	-0.000515003	0	
0.000106457	-0.000515681	0	
0.000129377	-0.000516104	0	
0.000152228	-0.000516273	0	
0.000175084	-0.000516189	0	
0.000198018	-0.000515851	0	
0.000221105	-0.000515257	0	
0.000244421	-0.000514402	0	
0.00026804	-0.00051328	0	
3.97498e-005	-0.000536279	0	
6.26703e-005	-0.000537544	0	
8.53073e-005	-0.000538528	0	
0.000107735	-0.00053924	0	
0.000130024	-0.000539684	0	
0.000152248	-0.000539864	0	
0.000174476	-0.00053978	0	
0.00019678	-0.000539431	0	
0.000219232	-0.000538815	0	
0.000241903	-0.000537925	0	
0.00026487	-0.000536754	0	
4.31058e-005	-0.000559026	0	
6.53421e-005	-0.000560347	0	
8.73066e-005	-0.000561375	0	
0.00010907	-0.000562118	0	
0.000130702	-0.000562584	0	
0.00015227	-0.000562774	0	
0.000173842	-0.00056269	0	
0.000195488	-0.000562331	0	
0.000217275	-0.000561692	0	
0.000239274	-0.000560769	0	
0.000261556	-0.000559553	0	
4.66034e-005	-0.000581067	0	
6.8126e-005	-0.000582441	0	
8.93896e-005	-0.00058351	0	
0.000110462	-0.000584284	0	
0.000131408	-0.00058477	0	
0.000152294	-0.00058497	0	
0.000173185	-0.000584887	0	
0.000194144	-0.000584518	0	
0.000215239	-0.000583859	0	
0.000236536	-0.000582905	0	
0.000258103	-0.000581646	0	
5.02359e-005	-0.000602371	0	
7.10165e-005	-0.000603796	0	
9.15522e-005	-0.000604905	0	
0.000111907	-0.000605708	0	
0.000132143	-0.000606213	0	
0.000152321	-0.000606423	0	
0.000172504	-0.00060634	0	
0.000192752	-0.000605962	0	
0.000213128	-0.000605284	0	
0.000233695	-0.000604301	0	
0.000254519	-0.000603001	0	
5.3996e-005	-0.000622912	0	
7.40079e-005	-0.000624384	0	
9.37902e-005	-0.00062553	0	
0.000113403	-0.000626361	0	
0.000132903	-0.000626884	0	
0.00015235	-0.000627103	0	
0.000171801	-0.00062702	0	
0.000191314	-0.000626634	0	
0.000210946	-0.000625939	0	
0.000230758	-0.000624928	0	
0.00025081	-0.00062359	0	
5.78757e-005	-0.000642662	0	
7.7094e-005	-0.000644178	0	
9.60989e-005	-0.000645359	0	
0.000114946	-0.000646215	0	
0.000133689	-0.000646755	0	
0.000152382	-0.000646983	0	
0.000171079	-0.000646901	0	
0.000189832	-0.000646507	0	
0.000208697	-0.000645795	0	
0.000227728	-0.000644758	0	
0.000246984	-0.000643384	0	
6.18665e-005	-0.000661596	0	
8.02681e-005	-0.000663153	0	
9.84734e-005	-0.000664366	0	
0.000116533	-0.000665246	0	
0.000134498	-0.000665802	0	
0.000152416	-0.000666038	0	
0.000170337	-0.000665956	0	
0.000188311	-0.000665554	0	
0.000206386	-0.000664827	0	
0.000224615	-0.000663766	0	
0.000243048	-0.000662359	0	
6.59595e-005	-0.000679692	0	
8.3523e-005	-0.000681287	0	
0.000100908	-0.000682529	0	
0.000118161	-0.000683431	0	
0.000135328	-0.000684001	0	
0.000152452	-0.000684244	0	
0.000169578	-0.000684162	0	
0.000186752	-0.000683753	0	
0.000204018	-0.000683011	0	
0.000221423	-0.000681927	0	
0.000239013	-0.000680489	0	
7.01451e-005	-0.000696929	0	
8.68513e-005	-0.000698558	0	
0.000103398	-0.000699826	0	
0.000119826	-0.000700747	0	
0.000136177	-0.00070133	0	
0.000152489	-0.000701579	0	
0.000168803	-0.000701497	0	
0.000185159	-0.000701081	0	
0.000201598	-0.000700325	0	
0.000218159	-0.000699221	0	
0.000234886	-0.000697755	0	
7.44135e-005	-0.000713289	0	
9.02453e-005	-0.000714947	0	
0.000105937	-0.000716239	0	
0.000121524	-0.000717177	0	
0.000137043	-0.000717771	0	
0.000152528	-0.000718025	0	
0.000168014	-0.000717942	0	
0.000183536	-0.000717519	0	
0.00019913	-0.000716751	0	
0.000214832	-0.000715627	0	
0.000230678	-0.000714135	0	
7.87544e-005	-0.000728755	0	
9.3697e-005	-0.000730439	0	
0.000108519	-0.000731751	0	
0.000123251	-0.000732704	0	
0.000137924	-0.000733307	0	
0.000152567	-0.000733566	0	
0.000167211	-0.000733481	0	
0.000181885	-0.000733051	0	
0.000196621	-0.000732271	0	
0.000211448	-0.000731129	0	
0.000226398	-0.000729613	0	
8.31577e-005	-0.000743313	0	
9.71984e-005	-0.000745019	0	
0.000111138	-0.000746349	0	
0.000125003	-0.000747314	0	
0.000138818	-0.000747924	0	
0.000152607	-0.000748185	0	
0.000166396	-0.000748099	0	
0.000180211	-0.000747663	0	
0.000194075	-0.000746871	0	
0.000208015	-0.000745713	0	
0.000222056	-0.000744176	0	
8.76126e-005	-0.000756952	0	
0.000100741	-0.000758676	0	
0.000113789	-0.000760019	0	
0.000126776	-0.000760994	0	
0.000139722	-0.000761611	0	
0.000152647	-0.000761874	0	
0.000165571	-0.000761785	0	
0.000178515	-0.000761342	0	
0.000191499	-0.000760539	0	
0.000204541	-0.000759366	0	
0.000217662	-0.00075781	0	
9.21089e-005	-0.000769662	0	
0.000104317	-0.000771401	0	
0.000116464	-0.000772755	0	
0.000128565	-0.000773737	0	
0.000140634	-0.000774357	0	
0.000152686	-0.000774621	0	
0.000164737	-0.000774529	0	
0.000176802	-0.000774079	0	
0.000188896	-0.000773266	0	
0.000201033	-0.000772081	0	
0.000213227	-0.000770508	0	
9.66361e-005	-0.000781438	0	
0.000107918	-0.000783186	0	
0.000119158	-0.000784548	0	
0.000130366	-0.000785535	0	
0.000141552	-0.000786158	0	
0.000152725	-0.000786421	0	
0.000163896	-0.000786325	0	
0.000175076	-0.000785869	0	
0.000186273	-0.000785047	0	
0.000197499	-0.000783849	0	
0.00020876	-0.000782263	0	
0.000101184	-0.000792273	0	
0.000111536	-0.000794028	0	
0.000121866	-0.000795394	0	
0.000132176	-0.000796385	0	
0.000142473	-0.000797008	0	
0.000152762	-0.000797269	0	
0.000163049	-0.000797169	0	
0.000173338	-0.000796707	0	
0.000183636	-0.000795876	0	
0.000193946	-0.000794669	0	
0.000204271	-0.000793071	0	
0.000105743	-0.000802167	0	
0.000115164	-0.000803924	0	
0.00012458	-0.000805293	0	
0.000133991	-0.000806284	0	
0.000143396	-0.000806906	0	
0.000152798	-0.000807164	0	
0.000162196	-0.00080706	0	
0.000171593	-0.000806591	0	
0.000180988	-0.000805753	0	
0.000190381	-0.000804537	0	
0.00019977	-0.00080293	0	
0.000110303	-0.00081112	0	
0.000118794	-0.000812876	0	
0.000127296	-0.000814243	0	
0.000135806	-0.000815232	0	
0.000144319	-0.000815852	0	
0.000152831	-0.000816107	0	
0.000161341	-0.000815998	0	
0.000169843	-0.000815523	0	
0.000178335	-0.000814679	0	
0.000186812	-0.000813455	0	
0.000195265	-0.000811842	0	
0.000114856	-0.000819132	0	
0.000122418	-0.000820884	0	
0.000130009	-0.000822247	0	
0.000137618	-0.000823233	0	
0.000145239	-0.000823849	0	
0.000152863	-0.0008241	0	
0.000160483	-0.000823986	0	
0.000168093	-0.000823506	0	
0.000175683	-0.000822656	0	
0.000183244	-0.000821427	0	
0.000190766	-0.00081981	0	
0.000119392	-0.00082621	0	
0.000126031	-0.000827953	0	
0.000132712	-0.000829311	0	
0.000139425	-0.000830291	0	
0.000146155	-0.000830903	0	
0.000152892	-0.000831148	0	
0.000159626	-0.000831029	0	
0.000166344	-0.000830544	0	
0.000173035	-0.000829689	0	
0.000179685	-0.000828457	0	
0.000186281	-0.000826838	0	
0.000123905	-0.000832357	0	
0.000129625	-0.00083409	0	
0.000135403	-0.000835439	0	
0.000141222	-0.000836413	0	
0.000147065	-0.000837018	0	
0.000152919	-0.000837258	0	
0.000158769	-0.000837134	0	
0.000164599	-0.000836645	0	
0.000170396	-0.000835787	0	
0.000176141	-0.000834553	0	
0.000181817	-0.000832935	0	
0.000128387	-0.000837582	0	
0.000133196	-0.000839301	0	
0.000138076	-0.00084064	0	
0.000143006	-0.000841605	0	
0.000147968	-0.000842204	0	
0.000152943	-0.000842438	0	
0.000157914	-0.000842309	0	
0.000162862	-0.000841816	0	
0.00016777	-0.000840956	0	
0.000172617	-0.000839723	0	
0.000177381	-0.000838108	0	
0.00013283	-0.000841893	0	
0.000136738	-0.000843597	0	
0.000140728	-0.000844923	0	
0.000144776	-0.000845879	0	
0.000148862	-0.000846469	0	
0.000152965	-0.000846697	0	
0.000157062	-0.000846564	0	
0.000161135	-0.000846069	0	
0.000165161	-0.000845208	0	
0.000169118	-0.000843976	0	
0.00017298	-0.000842367	0	
0.00013723	-0.0008453	0	
0.000140246	-0.000846987	0	
0.000143354	-0.000848299	0	
0.000146529	-0.000849244	0	
0.000149747	-0.000849825	0	
0.000152983	-0.000850047	0	
0.000156216	-0.00084991	0	
0.00015942	-0.000849413	0	
0.000162573	-0.000848552	0	
0.000165649	-0.000847325	0	
0.00016862	-0.000845723	0	
0.000141581	-0.000847816	0	
0.000143716	-0.000849483	0	
0.000145952	-0.000850779	0	
0.000148263	-0.000851712	0	
0.000150621	-0.000852285	0	
0.000153	-0.0008525	0	
0.000155375	-0.000852359	0	
0.00015772	-0.000851861	0	
0.000160009	-0.000851002	0	
0.000162214	-0.000849781	0	
0.000164307	-0.000848189	0	
0.000145877	-0.000849451	0	
0.000147143	-0.000851096	0	
0.000148519	-0.000852376	0	
0.000149976	-0.000853296	0	
0.000151483	-0.000853859	0	
0.000153014	-0.000854068	0	
0.000154541	-0.000853924	0	
0.000156036	-0.000853426	0	
0.000157472	-0.000852571	0	
0.000158818	-0.000851357	0	
0.000160044	-0.000849778	0	
0.000150116	-0.00085022	0	
0.000150526	-0.000851842	0	
0.000151053	-0.000853104	0	
0.000151665	-0.00085401	0	
0.000152333	-0.000854563	0	
0.000153026	-0.000854766	0	
0.000153716	-0.000854619	0	
0.000154372	-0.000854122	0	
0.000154964	-0.000853272	0	
0.000155463	-0.000852067	0	
0.000155836	-0.000850502	0	
0.000154293	-0.000850135	0	
0.00015386	-0.000851732	0	
0.00015355	-0.000852975	0	
0.000153331	-0.000853867	0	
0.00015317	-0.00085441	0	
0.000153036	-0.000854607	0	
0.000152899	-0.000854458	0	
0.000152727	-0.000853963	0	
0.000152489	-0.000853119	0	
0.000152153	-0.000851925	0	
0.000151686	-0.000850377	0	
0.000158405	-0.00084921	0	
0.000157143	-0.000850783	0	
0.00015601	-0.000852006	0	
0.000154971	-0.000852883	0	
0.000153993	-0.000853416	0	
0.000153045	-0.000853607	0	
0.000152093	-0.000853456	0	
0.000151105	-0.000852963	0	
0.000150049	-0.000852127	0	
0.000148892	-0.000850946	0	
0.000147599	-0.000849416	0	
0.00016245	-0.000847462	0	
0.000160374	-0.000849008	0	
0.00015843	-0.00085021	0	
0.000156585	-0.000851072	0	
0.000154803	-0.000851595	0	
0.000153051	-0.00085178	0	
0.000151297	-0.000851629	0	
0.000149506	-0.000851139	0	
0.000147645	-0.000850312	0	
0.00014568	-0.000849144	0	
0.000143575	-0.000847634	0	
0.000166425	-0.000844903	0	
0.000163549	-0.000846423	0	
0.00016081	-0.000847604	0	
0.000158171	-0.00084845	0	
0.000155598	-0.000848963	0	
0.000153057	-0.000849142	0	
0.000150513	-0.00084899	0	
0.000147931	-0.000848506	0	
0.000145279	-0.000847688	0	
0.00014252	-0.000846536	0	
0.000139619	-0.000845047	0	
0.00017033	-0.000841551	0	
0.000166669	-0.000843042	0	
0.000163147	-0.000844202	0	
0.000159729	-0.000845033	0	
0.000156379	-0.000845535	0	
0.000153061	-0.000845709	0	
0.000149741	-0.000845557	0	
0.000146383	-0.000845078	0	
0.000142953	-0.000844271	0	
0.000139414	-0.000843135	0	
0.000135732	-0.000841669	0	
0.000174161	-0.00083742	0	
0.00016973	-0.000838883	0	
0.000165442	-0.000840021	0	
0.000161259	-0.000840835	0	
0.000157145	-0.000841327	0	
0.000153064	-0.000841497	0	
0.000148982	-0.000841345	0	
0.000144861	-0.000840872	0	
0.000140667	-0.000840077	0	
0.000136364	-0.000838958	0	
0.000131915	-0.000837516	0	
0.000177919	-0.000832525	0	
0.000172734	-0.00083396	0	
0.000167693	-0.000835076	0	
0.000162759	-0.000835873	0	
0.000157896	-0.000836355	0	
0.000153067	-0.00083652	0	
0.000148236	-0.000836369	0	
0.000143367	-0.000835903	0	
0.000138424	-0.00083512	0	
0.00013337	-0.00083402	0	
0.000128169	-0.000832603	0	
0.000181601	-0.000826883	0	
0.000175678	-0.000828289	0	
0.0001699	-0.000829382	0	
0.00016423	-0.000830164	0	
0.000158632	-0.000830635	0	
0.000153069	-0.000830795	0	
0.000147504	-0.000830646	0	
0.000141901	-0.000830187	0	
0.000136223	-0.000829417	0	
0.000130434	-0.000828337	0	
0.000124497	-0.000826945	0	
0.000185208	-0.000820509	0	
0.000178561	-0.000821886	0	
0.000172062	-0.000822956	0	
0.000165671	-0.000823721	0	
0.000159353	-0.000824182	0	
0.00015307	-0.000824338	0	
0.000146786	-0.000824191	0	
0.000140463	-0.000823739	0	
0.000134066	-0.000822984	0	
0.000127557	-0.000821924	0	
0.000120899	-0.000820558	0	
0.000188739	-0.00081342	0	
0.000181385	-0.000814767	0	
0.000174178	-0.000815814	0	
0.000167082	-0.000816563	0	
0.000160059	-0.000817013	0	
0.000153071	-0.000817165	0	
0.000146082	-0.00081702	0	
0.000139055	-0.000816577	0	
0.000131953	-0.000815835	0	
0.000124739	-0.000814796	0	
0.000117375	-0.000813457	0	
0.000192194	-0.000805629	0	
0.000184147	-0.000806947	0	
0.000176249	-0.000807971	0	
0.000168462	-0.000808703	0	
0.000160749	-0.000809143	0	
0.000153072	-0.000809292	0	
0.000145393	-0.000809149	0	
0.000137677	-0.000808714	0	
0.000129885	-0.000807987	0	
0.000121981	-0.000806969	0	
0.000113927	-0.000805659	0	
0.000195571	-0.000797154	0	
0.000186848	-0.000798442	0	
0.000178274	-0.000799444	0	
0.000169812	-0.000800159	0	
0.000161424	-0.000800589	0	
0.000153072	-0.000800734	0	
0.000144719	-0.000800593	0	
0.000136329	-0.000800167	0	
0.000127862	-0.000799456	0	
0.000119284	-0.000798459	0	
0.000110554	-0.000797177	0	
0.000198871	-0.000788011	0	
0.000189487	-0.000789269	0	
0.000180253	-0.000790247	0	
0.000171131	-0.000790946	0	
0.000162083	-0.000791366	0	
0.000153072	-0.000791506	0	
0.00014406	-0.000791368	0	
0.000135011	-0.000790952	0	
0.000125885	-0.000790256	0	
0.000116647	-0.000789281	0	
0.000107258	-0.000788027	0	
0.000202094	-0.000778214	0	
0.000192065	-0.000779442	0	
0.000182186	-0.000780397	0	
0.00017242	-0.000781079	0	
0.000162727	-0.000781489	0	
0.000153072	-0.000781626	0	
0.000143417	-0.000781491	0	
0.000133723	-0.000781084	0	
0.000123954	-0.000780404	0	
0.000114071	-0.000779451	0	
0.000104038	-0.000778226	0	
0.00020524	-0.000767779	0	
0.000194581	-0.000768978	0	
0.000184073	-0.000769909	0	
0.000173677	-0.000770575	0	
0.000163356	-0.000770975	0	
0.000153072	-0.000771108	0	
0.000142788	-0.000770976	0	
0.000132466	-0.000770578	0	
0.000122068	-0.000769914	0	
0.000111557	-0.000768984	0	
0.000100895	-0.000767789	0	
0.000208308	-0.000756723	0	
0.000197035	-0.000757891	0	
0.000185913	-0.0007588	0	
0.000174904	-0.000759449	0	
0.000163969	-0.000759839	0	
0.000153072	-0.000759969	0	
0.000142175	-0.00075984	0	
0.000131239	-0.000759451	0	
0.000120228	-0.000758804	0	
0.000109104	-0.000757896	0	
9.78295e-005	-0.00075673	0	
0.000211298	-0.000745061	0	
0.000199427	-0.000746199	0	
0.000187707	-0.000747085	0	
0.0001761	-0.000747717	0	
0.000164567	-0.000748096	0	
0.000153072	-0.000748223	0	
0.000141577	-0.000748097	0	
0.000130044	-0.000747718	0	
0.000118435	-0.000747087	0	
0.000106713	-0.000746203	0	
9.48408e-005	-0.000745066	0	
0.000214211	-0.000732808	0	
0.000201757	-0.000733916	0	
0.000189454	-0.000734778	0	
0.000177264	-0.000735394	0	
0.00016515	-0.000735764	0	
0.000153072	-0.000735887	0	
0.000140995	-0.000735764	0	
0.000128879	-0.000735395	0	
0.000116688	-0.00073478	0	
0.000104384	-0.000733919	0	
9.19293e-005	-0.000732811	0	
0.000217046	-0.00071998	0	
0.000204025	-0.000721058	0	
0.000191155	-0.000721897	0	
0.000178398	-0.000722496	0	
0.000165716	-0.000722856	0	
0.000153072	-0.000722976	0	
0.000140428	-0.000722856	0	
0.000127746	-0.000722497	0	
0.000114988	-0.000721898	0	