# vtk DataFile Version 4.1
vtk output
ASCII
DATASET UNSTRUCTURED_GRID

POINTS	1111	float
0	0	0	
0	1	0	
0	2	0	
0	3	0	
0	4	0	
0	5	0	
0	6	0	
0	7	0	
0	8	0	
0	9	0	
0	10	0	
1	0	0	
1	1	0	
1	2	0	
1	3	0	
1	4	0	
1	5	0	
1	6	0	
1	7	0	
1	8	0	
1	9	0	
1	10	0	
2	0	0	
2	1	0	
2	2	0	
2	3	0	
2	4	0	
2	5	0	
2	6	0	
2	7	0	
2	8	0	
2	9	0	
2	10	0	
3	0	0	
3	1	0	
3	2	0	
3	3	0	
3	4	0	
3	5	0	
3	6	0	
3	7	0	
3	8	0	
3	9	0	
3	10	0	
4	0	0	
4	1	0	
4	2	0	
4	3	0	
4	4	0	
4	5	0	
4	6	0	
4	7	0	
4	8	0	
4	9	0	
4	10	0	
5	0	0	
5	1	0	
5	2	0	
5	3	0	
5	4	0	
5	5	0	
5	6	0	
5	7	0	
5	8	0	
5	9	0	
5	10	0	
6	0	0	
6	1	0	
6	2	0	
6	3	0	
6	4	0	
6	5	0	
6	6	0	
6	7	0	
6	8	0	
6	9	0	
6	10	0	
7	0	0	
7	1	0	
7	2	0	
7	3	0	
7	4	0	
7	5	0	
7	6	0	
7	7	0	
7	8	0	
7	9	0	
7	10	0	
8	0	0	
8	1	0	
8	2	0	
8	3	0	
8	4	0	
8	5	0	
8	6	0	
8	7	0	
8	8	0	
8	9	0	
8	10	0	
9	0	0	
9	1	0	
9	2	0	
9	3	0	
9	4	0	
9	5	0	
9	6	0	
9	7	0	
9	8	0	
9	9	0	
9	10	0	
10	0	0	
10	1	0	
10	2	0	
10	3	0	
10	4	0	
10	5	0	
10	6	0	
10	7	0	
10	8	0	
10	9	0	
10	10	0	
11	0	0	
11	1	0	
11	2	0	
11	3	0	
11	4	0	
11	5	0	
11	6	0	
11	7	0	
11	8	0	
11	9	0	
11	10	0	
12	0	0	
12	1	0	
12	2	0	
12	3	0	
12	4	0	
12	5	0	
12	6	0	
12	7	0	
12	8	0	
12	9	0	
12	10	0	
13	0	0	
13	1	0	
13	2	0	
13	3	0	
13	4	0	
13	5	0	
13	6	0	
13	7	0	
13	8	0	
13	9	0	
13	10	0	
14	0	0	
14	1	0	
14	2	0	
14	3	0	
14	4	0	
14	5	0	
14	6	0	
14	7	0	
14	8	0	
14	9	0	
14	10	0	
15	0	0	
15	1	0	
15	2	0	
15	3	0	
15	4	0	
15	5	0	
15	6	0	
15	7	0	
15	8	0	
15	9	0	
15	10	0	
16	0	0	
16	1	0	
16	2	0	
16	3	0	
16	4	0	
16	5	0	
16	6	0	
16	7	0	
16	8	0	
16	9	0	
16	10	0	
17	0	0	
17	1	0	
17	2	0	
17	3	0	
17	4	0	
17	5	0	
17	6	0	
17	7	0	
17	8	0	
17	9	0	
17	10	0	
18	0	0	
18	1	0	
18	2	0	
18	3	0	
18	4	0	
18	5	0	
18	6	0	
18	7	0	
18	8	0	
18	9	0	
18	10	0	
19	0	0	
19	1	0	
19	2	0	
19	3	0	
19	4	0	
19	5	0	
19	6	0	
19	7	0	
19	8	0	
19	9	0	
19	10	0	
20	0	0	
20	1	0	
20	2	0	
20	3	0	
20	4	0	
20	5	0	
20	6	0	
20	7	0	
20	8	0	
20	9	0	
20	10	0	
21	0	0	
21	1	0	
21	2	0	
21	3	0	
21	4	0	
21	5	0	
21	6	0	
21	7	0	
21	8	0	
21	9	0	
21	10	0	
22	0	0	
22	1	0	
22	2	0	
22	3	0	
22	4	0	
22	5	0	
22	6	0	
22	7	0	
22	8	0	
22	9	0	
22	10	0	
23	0	0	
23	1	0	
23	2	0	
23	3	0	
23	4	0	
23	5	0	
23	6	0	
23	7	0	
23	8	0	
23	9	0	
23	10	0	
24	0	0	
24	1	0	
24	2	0	
24	3	0	
24	4	0	
24	5	0	
24	6	0	
24	7	0	
24	8	0	
24	9	0	
24	10	0	
25	0	0	
25	1	0	
25	2	0	
25	3	0	
25	4	0	
25	5	0	
25	6	0	
25	7	0	
25	8	0	
25	9	0	
25	10	0	
26	0	0	
26	1	0	
26	2	0	
26	3	0	
26	4	0	
26	5	0	
26	6	0	
26	7	0	
26	8	0	
26	9	0	
26	10	0	
27	0	0	
27	1	0	
27	2	0	
27	3	0	
27	4	0	
27	5	0	
27	6	0	
27	7	0	
27	8	0	
27	9	0	
27	10	0	
28	0	0	
28	1	0	
28	2	0	
28	3	0	
28	4	0	
28	5	0	
28	6	0	
28	7	0	
28	8	0	
28	9	0	
28	10	0	
29	0	0	
29	1	0	
29	2	0	
29	3	0	
29	4	0	
29	5	0	
29	6	0	
29	7	0	
29	8	0	
29	9	0	
29	10	0	
30	0	0	
30	1	0	
30	2	0	
30	3	0	
30	4	0	
30	5	0	
30	6	0	
30	7	0	
30	8	0	
30	9	0	
30	10	0	
31	0	0	
31	1	0	
31	2	0	
31	3	0	
31	4	0	
31	5	0	
31	6	0	
31	7	0	
31	8	0	
31	9	0	
31	10	0	
32	0	0	
32	1	0	
32	2	0	
32	3	0	
32	4	0	
32	5	0	
32	6	0	
32	7	0	
32	8	0	
32	9	0	
32	10	0	
33	0	0	
33	1	0	
33	2	0	
33	3	0	
33	4	0	
33	5	0	
33	6	0	
33	7	0	
33	8	0	
33	9	0	
33	10	0	
34	0	0	
34	1	0	
34	2	0	
34	3	0	
34	4	0	
34	5	0	
34	6	0	
34	7	0	
34	8	0	
34	9	0	
34	10	0	
35	0	0	
35	1	0	
35	2	0	
35	3	0	
35	4	0	
35	5	0	
35	6	0	
35	7	0	
35	8	0	
35	9	0	
35	10	0	
36	0	0	
36	1	0	
36	2	0	
36	3	0	
36	4	0	
36	5	0	
36	6	0	
36	7	0	
36	8	0	
36	9	0	
36	10	0	
37	0	0	
37	1	0	
37	2	0	
37	3	0	
37	4	0	
37	5	0	
37	6	0	
37	7	0	
37	8	0	
37	9	0	
37	10	0	
38	0	0	
38	1	0	
38	2	0	
38	3	0	
38	4	0	
38	5	0	
38	6	0	
38	7	0	
38	8	0	
38	9	0	
38	10	0	
39	0	0	
39	1	0	
39	2	0	
39	3	0	
39	4	0	
39	5	0	
39	6	0	
39	7	0	
39	8	0	
39	9	0	
39	10	0	
40	0	0	
40	1	0	
40	2	0	
40	3	0	
40	4	0	
40	5	0	
40	6	0	
40	7	0	
40	8	0	
40	9	0	
40	10	0	
41	0	0	
41	1	0	
41	2	0	
41	3	0	
41	4	0	
41	5	0	
41	6	0	
41	7	0	
41	8	0	
41	9	0	
41	10	0	
42	0	0	
42	1	0	
42	2	0	
42	3	0	
42	4	0	
42	5	0	
42	6	0	
42	7	0	
42	8	0	
42	9	0	
42	10	0	
43	0	0	
43	1	0	
43	2	0	
43	3	0	
43	4	0	
43	5	0	
43	6	0	
43	7	0	
43	8	0	
43	9	0	
43	10	0	
44	0	0	
44	1	0	
44	2	0	
44	3	0	
44	4	0	
44	5	0	
44	6	0	
44	7	0	
44	8	0	
44	9	0	
44	10	0	
45	0	0	
45	1	0	
45	2	0	
45	3	0	
45	4	0	
45	5	0	
45	6	0	
45	7	0	
45	8	0	
45	9	0	
45	10	0	
46	0	0	
46	1	0	
46	2	0	
46	3	0	
46	4	0	
46	5	0	
46	6	0	
46	7	0	
46	8	0	
46	9	0	
46	10	0	
47	0	0	
47	1	0	
47	2	0	
47	3	0	
47	4	0	
47	5	0	
47	6	0	
47	7	0	
47	8	0	
47	9	0	
47	10	0	
48	0	0	
48	1	0	
48	2	0	
48	3	0	
48	4	0	
48	5	0	
48	6	0	
48	7	0	
48	8	0	
48	9	0	
48	10	0	
49	0	0	
49	1	0	
49	2	0	
49	3	0	
49	4	0	
49	5	0	
49	6	0	
49	7	0	
49	8	0	
49	9	0	
49	10	0	
50	0	0	
50	1	0	
50	2	0	
50	3	0	
50	4	0	
50	5	0	
50	6	0	
50	7	0	
50	8	0	
50	9	0	
50	10	0	
51	0	0	
51	1	0	
51	2	0	
51	3	0	
51	4	0	
51	5	0	
51	6	0	
51	7	0	
51	8	0	
51	9	0	
51	10	0	
52	0	0	
52	1	0	
52	2	0	
52	3	0	
52	4	0	
52	5	0	
52	6	0	
52	7	0	
52	8	0	
52	9	0	
52	10	0	
53	0	0	
53	1	0	
53	2	0	
53	3	0	
53	4	0	
53	5	0	
53	6	0	
53	7	0	
53	8	0	
53	9	0	
53	10	0	
54	0	0	
54	1	0	
54	2	0	
54	3	0	
54	4	0	
54	5	0	
54	6	0	
54	7	0	
54	8	0	
54	9	0	
54	10	0	
55	0	0	
55	1	0	
55	2	0	
55	3	0	
55	4	0	
55	5	0	
55	6	0	
55	7	0	
55	8	0	
55	9	0	
55	10	0	
56	0	0	
56	1	0	
56	2	0	
56	3	0	
56	4	0	
56	5	0	
56	6	0	
56	7	0	
56	8	0	
56	9	0	
56	10	0	
57	0	0	
57	1	0	
57	2	0	
57	3	0	
57	4	0	
57	5	0	
57	6	0	
57	7	0	
57	8	0	
57	9	0	
57	10	0	
58	0	0	
58	1	0	
58	2	0	
58	3	0	
58	4	0	
58	5	0	
58	6	0	
58	7	0	
58	8	0	
58	9	0	
58	10	0	
59	0	0	
59	1	0	
59	2	0	
59	3	0	
59	4	0	
59	5	0	
59	6	0	
59	7	0	
59	8	0	
59	9	0	
59	10	0	
60	0	0	
60	1	0	
60	2	0	
60	3	0	
60	4	0	
60	5	0	
60	6	0	
60	7	0	
60	8	0	
60	9	0	
60	10	0	
61	0	0	
61	1	0	
61	2	0	
61	3	0	
61	4	0	
61	5	0	
61	6	0	
61	7	0	
61	8	0	
61	9	0	
61	10	0	
62	0	0	
62	1	0	
62	2	0	
62	3	0	
62	4	0	
62	5	0	
62	6	0	
62	7	0	
62	8	0	
62	9	0	
62	10	0	
63	0	0	
63	1	0	
63	2	0	
63	3	0	
63	4	0	
63	5	0	
63	6	0	
63	7	0	
63	8	0	
63	9	0	
63	10	0	
64	0	0	
64	1	0	
64	2	0	
64	3	0	
64	4	0	
64	5	0	
64	6	0	
64	7	0	
64	8	0	
64	9	0	
64	10	0	
65	0	0	
65	1	0	
65	2	0	
65	3	0	
65	4	0	
65	5	0	
65	6	0	
65	7	0	
65	8	0	
65	9	0	
65	10	0	
66	0	0	
66	1	0	
66	2	0	
66	3	0	
66	4	0	
66	5	0	
66	6	0	
66	7	0	
66	8	0	
66	9	0	
66	10	0	
67	0	0	
67	1	0	
67	2	0	
67	3	0	
67	4	0	
67	5	0	
67	6	0	
67	7	0	
67	8	0	
67	9	0	
67	10	0	
68	0	0	
68	1	0	
68	2	0	
68	3	0	
68	4	0	
68	5	0	
68	6	0	
68	7	0	
68	8	0	
68	9	0	
68	10	0	
69	0	0	
69	1	0	
69	2	0	
69	3	0	
69	4	0	
69	5	0	
69	6	0	
69	7	0	
69	8	0	
69	9	0	
69	10	0	
70	0	0	
70	1	0	
70	2	0	
70	3	0	
70	4	0	
70	5	0	
70	6	0	
70	7	0	
70	8	0	
70	9	0	
70	10	0	
71	0	0	
71	1	0	
71	2	0	
71	3	0	
71	4	0	
71	5	0	
71	6	0	
71	7	0	
71	8	0	
71	9	0	
71	10	0	
72	0	0	
72	1	0	
72	2	0	
72	3	0	
72	4	0	
72	5	0	
72	6	0	
72	7	0	
72	8	0	
72	9	0	
72	10	0	
73	0	0	
73	1	0	
73	2	0	
73	3	0	
73	4	0	
73	5	0	
73	6	0	
73	7	0	
73	8	0	
73	9	0	
73	10	0	
74	0	0	
74	1	0	
74	2	0	
74	3	0	
74	4	0	
74	5	0	
74	6	0	
74	7	0	
74	8	0	
74	9	0	
74	10	0	
75	0	0	
75	1	0	
75	2	0	
75	3	0	
75	4	0	
75	5	0	
75	6	0	
75	7	0	
75	8	0	
75	9	0	
75	10	0	
76	0	0	
76	1	0	
76	2	0	
76	3	0	
76	4	0	
76	5	0	
76	6	0	
76	7	0	
76	8	0	
76	9	0	
76	10	0	
77	0	0	
77	1	0	
77	2	0	
77	3	0	
77	4	0	
77	5	0	
77	6	0	
77	7	0	
77	8	0	
77	9	0	
77	10	0	
78	0	0	
78	1	0	
78	2	0	
78	3	0	
78	4	0	
78	5	0	
78	6	0	
78	7	0	
78	8	0	
78	9	0	
78	10	0	
79	0	0	
79	1	0	
79	2	0	
79	3	0	
79	4	0	
79	5	0	
79	6	0	
79	7	0	
79	8	0	
79	9	0	
79	10	0	
80	0	0	
80	1	0	
80	2	0	
80	3	0	
80	4	0	
80	5	0	
80	6	0	
80	7	0	
80	8	0	
80	9	0	
80	10	0	
81	0	0	
81	1	0	
81	2	0	
81	3	0	
81	4	0	
81	5	0	
81	6	0	
81	7	0	
81	8	0	
81	9	0	
81	10	0	
82	0	0	
82	1	0	
82	2	0	
82	3	0	
82	4	0	
82	5	0	
82	6	0	
82	7	0	
82	8	0	
82	9	0	
82	10	0	
83	0	0	
83	1	0	
83	2	0	
83	3	0	
83	4	0	
83	5	0	
83	6	0	
83	7	0	
83	8	0	
83	9	0	
83	10	0	
84	0	0	
84	1	0	
84	2	0	
84	3	0	
84	4	0	
84	5	0	
84	6	0	
84	7	0	
84	8	0	
84	9	0	
84	10	0	
85	0	0	
85	1	0	
85	2	0	
85	3	0	
85	4	0	
85	5	0	
85	6	0	
85	7	0	
85	8	0	
85	9	0	
85	10	0	
86	0	0	
86	1	0	
86	2	0	
86	3	0	
86	4	0	
86	5	0	
86	6	0	
86	7	0	
86	8	0	
86	9	0	
86	10	0	
87	0	0	
87	1	0	
87	2	0	
87	3	0	
87	4	0	
87	5	0	
87	6	0	
87	7	0	
87	8	0	
87	9	0	
87	10	0	
88	0	0	
88	1	0	
88	2	0	
88	3	0	
88	4	0	
88	5	0	
88	6	0	
88	7	0	
88	8	0	
88	9	0	
88	10	0	
89	0	0	
89	1	0	
89	2	0	
89	3	0	
89	4	0	
89	5	0	
89	6	0	
89	7	0	
89	8	0	
89	9	0	
89	10	0	
90	0	0	
90	1	0	
90	2	0	
90	3	0	
90	4	0	
90	5	0	
90	6	0	
90	7	0	
90	8	0	
90	9	0	
90	10	0	
91	0	0	
91	1	0	
91	2	0	
91	3	0	
91	4	0	
91	5	0	
91	6	0	
91	7	0	
91	8	0	
91	9	0	
91	10	0	
92	0	0	
92	1	0	
92	2	0	
92	3	0	
92	4	0	
92	5	0	
92	6	0	
92	7	0	
92	8	0	
92	9	0	
92	10	0	
93	0	0	
93	1	0	
93	2	0	
93	3	0	
93	4	0	
93	5	0	
93	6	0	
93	7	0	
93	8	0	
93	9	0	
93	10	0	
94	0	0	
94	1	0	
94	2	0	
94	3	0	
94	4	0	
94	5	0	
94	6	0	
94	7	0	
94	8	0	
94	9	0	
94	10	0	
95	0	0	
95	1	0	
95	2	0	
95	3	0	
95	4	0	
95	5	0	
95	6	0	
95	7	0	
95	8	0	
95	9	0	
95	10	0	
96	0	0	
96	1	0	
96	2	0	
96	3	0	
96	4	0	
96	5	0	
96	6	0	
96	7	0	
96	8	0	
96	9	0	
96	10	0	
97	0	0	
97	1	0	
97	2	0	
97	3	0	
97	4	0	
97	5	0	
97	6	0	
97	7	0	
97	8	0	
97	9	0	
97	10	0	
98	0	0	
98	1	0	
98	2	0	
98	3	0	
98	4	0	
98	5	0	
98	6	0	
98	7	0	
98	8	0	
98	9	0	
98	10	0	
99	0	0	
99	1	0	
99	2	0	
99	3	0	
99	4	0	
99	5	0	
99	6	0	
99	7	0	
99	8	0	
99	9	0	
99	10	0	
100	0	0	
100	1	0	
100	2	0	
100	3	0	
100	4	0	
100	5	0	
100	6	0	
100	7	0	
100	8	0	
100	9	0	
100	10	0	

CELLS 1000	5000
4	0	11	12	1	
4	1	12	13	2	
4	2	13	14	3	
4	3	14	15	4	
4	4	15	16	5	
4	5	16	17	6	
4	6	17	18	7	
4	7	18	19	8	
4	8	19	20	9	
4	9	20	21	10	
4	11	22	23	12	
4	12	23	24	13	
4	13	24	25	14	
4	14	25	26	15	
4	15	26	27	16	
4	16	27	28	17	
4	17	28	29	18	
4	18	29	30	19	
4	19	30	31	20	
4	20	31	32	21	
4	22	33	34	23	
4	23	34	35	24	
4	24	35	36	25	
4	25	36	37	26	
4	26	37	38	27	
4	27	38	39	28	
4	28	39	40	29	
4	29	40	41	30	
4	30	41	42	31	
4	31	42	43	32	
4	33	44	45	34	
4	34	45	46	35	
4	35	46	47	36	
4	36	47	48	37	
4	37	48	49	38	
4	38	49	50	39	
4	39	50	51	40	
4	40	51	52	41	
4	41	52	53	42	
4	42	53	54	43	
4	44	55	56	45	
4	45	56	57	46	
4	46	57	58	47	
4	47	58	59	48	
4	48	59	60	49	
4	49	60	61	50	
4	50	61	62	51	
4	51	62	63	52	
4	52	63	64	53	
4	53	64	65	54	
4	55	66	67	56	
4	56	67	68	57	
4	57	68	69	58	
4	58	69	70	59	
4	59	70	71	60	
4	60	71	72	61	
4	61	72	73	62	
4	62	73	74	63	
4	63	74	75	64	
4	64	75	76	65	
4	66	77	78	67	
4	67	78	79	68	
4	68	79	80	69	
4	69	80	81	70	
4	70	81	82	71	
4	71	82	83	72	
4	72	83	84	73	
4	73	84	85	74	
[...]
POINT_DATA	1111
VECTORS u float
-1.12238e-024	-5.48809e-014	0	
0.000494036	-6.58192e-005	0	
0.000938615	-0.000103993	0	
0.00137131	-0.000127637	0	
0.00179882	-0.000143322	0	
0.00222386	-0.00015377	0	
0.00264798	-0.000160329	0	
0.00307233	-0.000163905	0	
0.00349773	-0.000165336	0	
0.00392462	-0.00016555	0	
0.00435264	-0.000165494	0	
2.69157e-005	-0.000543958	0	
0.000502883	-0.000544538	0	
0.000946246	-0.000553359	0	
0.00137724	-0.00056482	0	
0.0018032	-0.000574742	0	
0.00222687	-0.000582349	0	
0.00264983	-0.000587699	0	
0.00307323	-0.00059109	0	
0.00349795	-0.000592909	0	
0.0039245	-0.000593596	0	
0.0043527	-0.000593717	0	
4.78045e-005	-0.00100148	0	
0.000501995	-0.00100634	0	
0.000946721	-0.00100634	0	
0.00137901	-0.0010088	0	
0.00180514	-0.00101277	0	
0.0022284	-0.00101671	0	
0.00265074	-0.00101988	0	
0.00307348	-0.00102202	0	
0.0034976	-0.0010231	0	
0.0039238	-0.00102328	0	
0.00435249	-0.00102304	0	
6.38571e-005	-0.00144684	0	
0.000506611	-0.00145069	0	
0.000946139	-0.00145164	0	
0.00137855	-0.00145161	0	
0.00180506	-0.00145231	0	
0.00222832	-0.00145349	0	
0.00265032	-0.0014546	0	
0.00307254	-0.00145525	0	
0.00349611	-0.00145526	0	
0.00392199	-0.00145465	0	
0.00435114	-0.00145374	0	
7.67637e-005	-0.00188492	0	
0.000513353	-0.00188895	0	
0.000948036	-0.00189063	0	
0.00137835	-0.00189082	0	
0.00180428	-0.00189056	0	
0.00222719	-0.00189032	0	
0.00264873	-0.00189003	0	
0.00307035	-0.00188946	0	
0.0034933	-0.00188846	0	
0.00391875	-0.00188702	0	
0.00434797	-0.00188528	0	
8.86854e-005	-0.00231932	0	
0.000521245	-0.00232353	0	
0.000951905	-0.00232593	0	
0.00137946	-0.00232674	0	
0.00180379	-0.00232657	0	
0.00222568	-0.00232588	0	
0.00264634	-0.00232486	0	
0.00306709	-0.00232348	0	
0.00348919	-0.00232169	0	
0.0039139	-0.00231947	0	
0.00434259	-0.00231685	0	
0.000100669	-0.00275093	0	
0.000530074	-0.00275547	0	
0.000957284	-0.00275847	0	
0.00138191	-0.00275994	0	
0.00180403	-0.00276017	0	
0.00222424	-0.00275953	0	
0.0026435	-0.00275825	0	
0.00306297	-0.0027564	0	
0.00348384	-0.00275402	0	
0.00390737	-0.00275111	0	
0.00433492	-0.00274762	0	
0.000113351	-0.00318002	0	
0.000539879	-0.003185	0	
0.000963901	-0.00318856	0	
0.00138553	-0.00319062	0	
0.00180505	-0.00319133	0	
0.00222307	-0.00319093	0	
0.00264042	-0.00318962	0	
0.00305813	-0.00318753	0	
0.00347732	-0.00318471	0	
0.00389918	-0.00318117	0	
0.00432497	-0.00317685	0	
0.000127115	-0.00360655	0	
0.000550753	-0.00361206	0	
0.000971628	-0.00361614	0	
0.00139015	-0.00361873	0	
0.0018068	-0.0036199	0	
0.0022222	-0.00361979	0	
0.00263717	-0.00361856	0	
0.00305265	-0.00361632	0	
0.00346968	-0.00361314	0	
0.00388937	-0.00360903	0	
0.00431286	-0.00360392	0	
0.000142205	-0.00403033	0	
0.000562787	-0.0040364	0	
0.00098041	-0.00404101	0	
0.00139567	-0.00404409	0	
0.00180917	-0.00404566	0	
0.0022216	-0.00404582	0	
0.00263376	-0.00404468	0	
0.00304656	-0.00404233	0	
0.00346097	-0.00403883	0	
0.003878	-0.00403418	0	
0.00429871	-0.00402832	0	
0.000158779	-0.00445105	0	
0.000576051	-0.00445774	0	
0.000990225	-0.00446287	0	
0.00140201	-0.0044664	0	
0.00181209	-0.00446833	0	
0.00222121	-0.00446873	0	
0.00263018	-0.00446766	0	
0.00303986	-0.0044652	0	
0.0034512	-0.00446138	0	
0.00386513	-0.0044562	0	
0.00428263	-0.00444963	0	
0.000176935	-0.00486841	0	
0.000590598	-0.00487572	0	
0.00100107	-0.00488138	0	
0.00140911	-0.00488533	0	
0.00181549	-0.00488759	0	
0.00222097	-0.00488818	0	
0.00262637	-0.00488715	0	
0.00303254	-0.00488455	0	
0.00344038	-0.00488041	0	
0.0038508	-0.00487472	0	
0.0042647	-0.00486745	0	
0.000196735	-0.00528205	0	
0.000606464	-0.00529001	0	
0.00101294	-0.00529618	0	
0.00141696	-0.00530055	0	
0.00181932	-0.00530309	0	
0.00222083	-0.00530384	0	
0.0026223	-0.00530283	0	
0.00302457	-0.00530007	0	
0.00342853	-0.00529559	0	
0.00383504	-0.00528939	0	
0.00424497	-0.00528144	0	
0.000218217	-0.00569162	0	
0.000623673	-0.00570023	0	
0.00102583	-0.00570693	0	
0.00142552	-0.00571168	0	
0.00182356	-0.0057145	0	
0.00222076	-0.00571538	0	
0.00261794	-0.00571434	0	
0.00301595	-0.00571141	0	
0.00341564	-0.00570659	0	
0.00381787	-0.00569987	0	
0.00422348	-0.00569125	0	
0.000241403	-0.00609676	0	
0.00064224	-0.00610604	0	
0.00103976	-0.00611325	0	
0.00143479	-0.00611839	0	
0.00182817	-0.00612145	0	
0.00222072	-0.00612244	0	
0.00261327	-0.00612137	0	
0.00300665	-0.00611824	0	
0.00340172	-0.00611307	0	
0.00379931	-0.00610584	0	
0.00420026	-0.00609655	0	
0.000266304	-0.00649712	0	
0.000662175	-0.00650706	0	
0.00105471	-0.00651479	0	
0.00144476	-0.00652031	0	
0.00183315	-0.00652361	0	
0.00222071	-0.00652469	0	
0.00260827	-0.00652357	0	
0.00299668	-0.00652024	0	
0.00338676	-0.00651471	0	
0.00377937	-0.00650697	0	
0.00417532	-0.00649701	0	
0.000292926	-0.00689234	0	
0.000683482	-0.00690295	0	
0.0010707	-0.00691119	0	
0.00145542	-0.00691708	0	
0.00183848	-0.00692062	0	
0.00222071	-0.00692179	0	
0.00260294	-0.0069206	0	
0.00298602	-0.00691706	0	
0.00337078	-0.00691117	0	
0.00375805	-0.00690291	0	
0.00414865	-0.0068923	0	
0.00032127	-0.00728208	0	
0.000706164	-0.00729335	0	
0.00108772	-0.00730211	0	
0.00146677	-0.00730837	0	
0.00184415	-0.00731213	0	
0.00222071	-0.00731338	0	
0.00259728	-0.00731213	0	
0.00297468	-0.00730837	0	
0.00335376	-0.00730211	0	
0.00373535	-0.00729334	0	
0.00412028	-0.00728207	0	
0.000351338	-0.00766598	0	
0.000730222	-0.00767791	0	
0.00110576	-0.00768719	0	
0.0014788	-0.00769383	0	
0.00185017	-0.00769781	0	
0.00222072	-0.00769913	0	
0.00259126	-0.00769781	0	
0.00296265	-0.00769383	0	
0.00333571	-0.00768721	0	
0.00371128	-0.00767792	0	
0.00409018	-0.00766599	0	
0.000383128	-0.0080437	0	
0.000755657	-0.0080563	0	
0.00112484	-0.00806609	0	
0.00149153	-0.00807309	0	
0.00185654	-0.00807729	0	
0.00222072	-0.0080787	0	
0.00258491	-0.0080773	0	
0.00294994	-0.0080731	0	
0.00331663	-0.00806611	0	
0.00368584	-0.00805631	0	
0.00405837	-0.00804371	0	
0.00041664	-0.00841489	0	
0.000782468	-0.00842815	0	
0.00114495	-0.00843846	0	
0.00150493	-0.00844583	0	
0.00186325	-0.00845025	0	
0.00222073	-0.00845173	0	
0.00257821	-0.00845026	0	
0.00293653	-0.00844584	0	
0.00329652	-0.00843848	0	
0.00365902	-0.00842816	0	
0.00402485	-0.0084149	0	
0.000451873	-0.0087792	0	
0.000810655	-0.00879313	0	
0.0011661	-0.00880395	0	
0.00151903	-0.00881169	0	
0.0018703	-0.00881633	0	
0.00222073	-0.00881788	0	
0.00257117	-0.00881634	0	
0.00292244	-0.0088117	0	
0.00327538	-0.00880397	0	
0.00363083	-0.00879314	0	
0.00398961	-0.00877921	0	
0.000488826	-0.0091363	0	
0.000840218	-0.00915089	0	
0.00118827	-0.00916223	0	
0.00153381	-0.00917033	0	
0.00187769	-0.0091752	0	
0.00222073	-0.00917682	0	
0.00256378	-0.0091752	0	
0.00290766	-0.00917034	0	
0.00325321	-0.00916224	0	
0.00360126	-0.00915089	0	
0.00395265	-0.00913631	0	
0.000527499	-0.00948583	0	
0.000871157	-0.00950108	0	
0.00121147	-0.00951294	0	
0.00154929	-0.00952141	0	
0.00188543	-0.0095265	0	
0.00222074	-0.00952819	0	
0.00255604	-0.0095265	0	
0.00289219	-0.00952142	0	
0.00323	-0.00951295	0	
0.00357032	-0.00950109	0	
0.00391398	-0.00948584	0	
0.000567892	-0.00982746	0	
0.000903471	-0.00984337	0	
0.00123571	-0.00985575	0	
0.00156544	-0.00986459	0	
0.00189351	-0.00986989	0	
0.00222074	-0.00987166	0	
0.00254797	-0.00986989	0	
0.00287603	-0.00986459	0	
0.00320577	-0.00985575	0	
0.003538	-0.00984338	0	
0.00387358	-0.00982746	0	
0.000610004	-0.0101608	0	
0.00093716	-0.0101774	0	
0.00126098	-0.0101903	0	
0.00158229	-0.0101995	0	
0.00190193	-0.010205	0	
0.00222074	-0.0102069	0	
0.00253954	-0.010205	0	
0.00285919	-0.0101995	0	
0.0031805	-0.0101903	0	
0.00350431	-0.0101774	0	
0.00383147	-0.0101608	0	
0.000653834	-0.0104856	0	
0.000972225	-0.0105029	0	
0.00128728	-0.0105163	0	
0.00159982	-0.0105258	0	
0.0019107	-0.0105316	0	
0.00222074	-0.0105335	0	
0.00253078	-0.0105316	0	
0.00284165	-0.0105258	0	
0.0031542	-0.0105163	0	
0.00346925	-0.0105029	0	
0.00378764	-0.0104856	0	
0.000699384	-0.0108015	0	
0.00100866	-0.0108194	0	
0.00131461	-0.0108333	0	
0.00161804	-0.0108432	0	
0.00191981	-0.0108492	0	
0.00222074	-0.0108512	0	
0.00252167	-0.0108492	0	
0.00282344	-0.0108432	0	
0.00312687	-0.0108333	0	
0.00343281	-0.0108194	0	
0.00374209	-0.0108015	0	
0.000746652	-0.011108	0	
0.00104648	-0.0111266	0	
0.00134297	-0.011141	0	
0.00163695	-0.0111513	0	
0.00192926	-0.0111575	0	
0.00222074	-0.0111596	0	
0.00251222	-0.0111575	0	
0.00280453	-0.0111513	0	
0.00309851	-0.011141	0	
0.00339499	-0.0111266	0	
0.00369482	-0.011108	0	
0.000795638	-0.011405	0	
0.00108567	-0.0114242	0	
0.00137236	-0.0114391	0	
0.00165655	-0.0114498	0	
0.00193906	-0.0114562	0	
0.00222074	-0.0114584	0	
0.00250242	-0.0114562	0	
0.00278493	-0.0114498	0	
0.00306912	-0.0114391	0	
0.0033558	-0.0114242	0	
0.00364583	-0.011405	0	
0.000846342	-0.0116919	0	
0.00112623	-0.0117118	0	
0.00140278	-0.0117273	0	
0.00167683	-0.0117383	0	
0.0019492	-0.011745	0	
0.00222074	-0.0117472	0	
0.00249228	-0.011745	0	
0.00276465	-0.0117383	0	
0.00303869	-0.0117273	0	
0.00331524	-0.0117118	0	
0.00359512	-0.0116919	0	
0.000898764	-0.0119686	0	
0.00116817	-0.0119891	0	
0.00143424	-0.0120051	0	
0.0016978	-0.0120165	0	
0.00195969	-0.0120234	0	
0.00222074	-0.0120257	0	
0.0024818	-0.0120234	0	
0.00274368	-0.0120165	0	
0.00300724	-0.0120051	0	
0.00327329	-0.0119891	0	
0.00354269	-0.0119686	0	
0.000952904	-0.0122346	0	
0.00121148	-0.0122558	0	
0.00146672	-0.0122723	0	
0.00171946	-0.0122841	0	
0.00197052	-0.0122911	0	
0.00222075	-0.0122935	0	
0.00247097	-0.0122911	0	
0.00272203	-0.0122841	0	
0.00297475	-0.0122723	0	
0.00322998	-0.0122558	0	
0.00348854	-0.0122346	0	
0.00100876	-0.0124896	0	
0.00125617	-0.0125115	0	
0.00150024	-0.0125285	0	
0.0017418	-0.0125406	0	
0.00198169	-0.0125479	0	
0.00222074	-0.0125503	0	
0.0024598	-0.0125479	0	
0.00269968	-0.0125406	0	
0.00294123	-0.0125284	0	
0.00318528	-0.0125114	0	
0.00343267	-0.0124895	0	
0.00106634	-0.0127332	0	
0.00130224	-0.0127558	0	
0.00153479	-0.0127733	0	
0.00176484	-0.0127858	0	
0.00199321	-0.0127933	0	
0.00222074	-0.0127958	0	
0.00244828	-0.0127933	0	
0.00267665	-0.0127858	0	
0.00290668	-0.0127733	0	
0.00313922	-0.0127557	0	
0.00337509	-0.0127332	0	
0.00112564	-0.0129652	0	
0.00134968	-0.0129884	0	
0.00157037	-0.0130065	0	
0.00178855	-0.0130194	0	
0.00200506	-0.0130271	0	
0.00222073	-0.0130296	0	
0.00243641	-0.013027	0	
0.00265292	-0.0130193	0	
0.0028711	-0.0130064	0	
0.00309178	-0.0129883	0	
0.00331578	-0.0129651	0	
0.00118666	-0.0131852	0	
0.0013985	-0.0132091	0	
0.00160699	-0.0132276	0	
0.00181295	-0.0132409	0	
0.00201724	-0.0132488	0	
0.00222071	-0.0132514	0	
0.00242419	-0.0132487	0	
0.00262851	-0.0132407	0	
0.00283449	-0.0132275	0	
0.00304297	-0.0132089	0	
0.00325476	-0.013185	0	
0.00124941	-0.0133928	0	
0.00144871	-0.0134173	0	
0.00164463	-0.0134364	0	
0.00183803	-0.01345	0	
0.00202976	-0.0134581	0	
0.00222067	-0.0134608	0	
0.00241161	-0.013458	0	
0.00260339	-0.0134498	0	
0.00279685	-0.0134361	0	
0.00299279	-0.013417	0	
0.00319204	-0.0133925	0	
0.0013139	-0.0135877	0	
0.0015003	-0.0136129	0	
0.00168331	-0.0136325	0	
0.00186378	-0.0136464	0	
0.0020426	-0.0136548	0	
0.00222061	-0.0136575	0	
0.00239866	-0.0136546	0	
0.00257758	-0.0136461	0	
0.00275818	-0.0136321	0	
0.00294126	-0.0136125	0	
0.00312761	-0.0135873	0	
0.00138014	-0.0137695	0	
0.0015533	-0.0137954	0	
0.00172302	-0.0138155	0	
0.00189021	-0.0138298	0	
0.00205574	-0.0138383	0	
0.0022205	-0.0138411	0	
0.00238533	-0.0138381	0	
0.00255106	-0.0138294	0	
0.00271848	-0.0138149	0	
0.00288837	-0.0137948	0	
0.0030615	-0.013769	0	
0.00144817	-0.0139379	0	
0.0016077	-0.0139645	0	
0.00176377	-0.0139851	0	
0.00191729	-0.0139998	0	
0.00206919	-0.0140085	0	
0.00222034	-0.0140113	0	
0.00237161	-0.0140082	0	
0.00252382	-0.0139992	0	
0.00267775	-0.0139844	0	
0.00283415	-0.0139637	0	
0.00299374	-0.0139373	0	
0.001518	-0.0140926	0	
0.00166353	-0.0141199	0	
0.00180556	-0.014141	0	
0.00194504	-0.0141561	0	
0.00208292	-0.014165	0	
0.00222012	-0.0141678	0	
0.00235748	-0.0141645	0	
0.00249585	-0.0141553	0	
0.00263599	-0.0141401	0	
0.0027786	-0.0141189	0	
0.00292435	-0.0140918	0	
0.00158968	-0.0142331	0	
0.00172081	-0.0142611	0	
0.00184839	-0.0142828	0	
0.00197344	-0.0142982	0	
0.00209694	-0.0143073	0	
0.00221981	-0.0143102	0	
0.00234293	-0.0143068	0	
0.00246714	-0.0142973	0	
0.00259319	-0.0142817	0	
0.00272175	-0.01426	0	
0.0028534	-0.0142323	0	
0.00166325	-0.014359	0	
0.00177954	-0.0143877	0	
0.00189227	-0.01441	0	
0.00200251	-0.0144258	0	
0.00211125	-0.0144352	0	
0.00221942	-0.0144381	0	
0.00232794	-0.0144347	0	
0.00243766	-0.014425	0	
0.00254935	-0.014409	0	
0.00266363	-0.0143868	0	
0.00278095	-0.0143585	0	
0.00173875	-0.0144699	0	
0.00183973	-0.0144993	0	
0.00193721	-0.0145222	0	
0.00203228	-0.0145384	0	
0.0021259	-0.0145481	0	
0.00221901	-0.0145513	0	
0.00231253	-0.014548	0	
0.0024074	-0.0145381	0	
0.00250443	-0.0145218	0	
0.00260423	-0.0144991	0	
0.0027071	-0.0144702	0	
0.00181617	-0.0145652	0	
0.00190137	-0.0145954	0	
0.00198322	-0.0146188	0	
0.00206278	-0.0146356	0	
0.00214097	-0.0146458	0	
0.00221867	-0.0146494	0	
0.0022968	-0.0146464	0	
0.00237637	-0.0146365	0	
0.00245839	-0.0146199	0	
0.00254355	-0.0145968	0	
0.00263197	-0.0145674	0	
0.00189548	-0.0146444	0	
0.00196441	-0.0146752	0	
0.00203028	-0.0146992	0	
0.00209408	-0.0147166	0	
0.0021566	-0.0147275	0	
0.00221862	-0.0147319	0	
0.00228095	-0.0147296	0	
0.00234469	-0.0147202	0	
0.00241116	-0.0147036	0	
0.0024815	-0.01468	0	
0.0025557	-0.0146501	0	
0.00197653	-0.0147068	0	
0.00202872	-0.0147383	0	
0.00207834	-0.0147629	0	
0.00212622	-0.0147809	0	
0.00217298	-0.0147927	0	
0.0022192	-0.0147981	0	
0.00226549	-0.0147971	0	
0.00231273	-0.0147891	0	
0.00236275	-0.0147732	0	
0.00241777	-0.0147494	0	
0.00247843	-0.0147188	0	
0.00205907	-0.0147519	0	
0.00209412	-0.0147839	0	
0.00212729	-0.014809	0	
0.00215919	-0.0148277	0	
0.00219024	-0.0148403	0	
0.00222077	-0.014847	0	
0.0022511	-0.0148479	0	
0.00228172	-0.0148426	0	
0.00231357	-0.0148298	0	
0.00235173	-0.0148063	0	
0.00240033	-0.014776	0	
0.0021427	-0.0147792	0	
0.0021603	-0.0148115	0	
0.00217692	-0.014837	0	
0.00219285	-0.0148561	0	
0.00220832	-0.0148694	0	
0.00222345	-0.0148772	0	
0.00223835	-0.01488	0	
0.00225306	-0.0148781	0	
0.00226772	-0.0148715	0	
0.00228217	-0.0148578	0	
0.0023187	-0.0148224	0	
0.00222691	-0.0147883	0	
0.00222691	-0.0148208	0	
0.00222691	-0.0148463	0	
0.00222691	-0.0148656	0	
0.00222691	-0.0148792	0	
0.00222691	-0.0148875	0	
0.00222691	-0.0148911	0	
0.00222691	-0.0148909	0	
0.00222691	-0.0148886	0	
0.00222691	-0.0148906	0	
0.00222691	-0.0149097	0	
0.00231112	-0.0147792	0	
0.00229352	-0.0148115	0	
0.00227691	-0.014837	0	
0.00226097	-0.0148561	0	
0.00224551	-0.0148694	0	
0.00223037	-0.0148772	0	
0.00221547	-0.01488	0	
0.00220077	-0.0148781	0	
0.0021861	-0.0148715	0	
0.00217165	-0.0148578	0	
0.00213513	-0.0148224	0	
0.00239475	-0.0147519	0	
0.00235971	-0.0147839	0	
0.00232653	-0.014809	0	
0.00229463	-0.0148277	0	
0.00226358	-0.0148403	0	
0.00223305	-0.014847	0	
0.00220272	-0.0148479	0	
0.0021721	-0.0148426	0	
0.00214026	-0.0148298	0	
0.00210209	-0.0148063	0	
0.00205349	-0.014776	0	
0.00247729	-0.0147068	0	
0.0024251	-0.0147383	0	
0.00237548	-0.0147629	0	
0.0023276	-0.0147809	0	
0.00228084	-0.0147927	0	
0.00223462	-0.0147981	0	
0.00218833	-0.0147971	0	
0.00214109	-0.0147891	0	
0.00209107	-0.0147732	0	
0.00203605	-0.0147494	0	
0.0019754	-0.0147188	0	
0.00255834	-0.0146444	0	
0.00248942	-0.0146752	0	
0.00242354	-0.0146992	0	
0.00235975	-0.0147166	0	
0.00229722	-0.0147275	0	
0.0022352	-0.0147319	0	
0.00217287	-0.0147296	0	
0.00210913	-0.0147202	0	
0.00204266	-0.0147036	0	
0.00197233	-0.01468	0	
0.00189812	-0.0146501	0	
0.00263765	-0.0145652	0	
0.00255245	-0.0145954	0	
0.0024706	-0.0146188	0	
0.00239105	-0.0146356	0	
0.00231286	-0.0146458	0	
0.00223516	-0.0146494	0	
0.00215702	-0.0146464	0	
0.00207745	-0.0146365	0	
0.00199544	-0.0146199	0	
0.00191027	-0.0145968	0	
0.00182186	-0.0145674	0	
0.00271508	-0.0144699	0	
0.0026141	-0.0144993	0	
0.00251661	-0.0145222	0	
0.00242155	-0.0145384	0	
0.00232793	-0.0145481	0	
0.00223482	-0.0145513	0	
0.00214129	-0.014548	0	
0.00204643	-0.0145381	0	
0.0019494	-0.0145218	0	
0.00184959	-0.0144991	0	
0.00174673	-0.0144702	0	
0.00279057	-0.014359	0	
0.00267429	-0.0143877	0	
0.00256155	-0.01441	0	
0.00245131	-0.0144258	0	
0.00234257	-0.0144352	0	
0.0022344	-0.0144381	0	
0.00212588	-0.0144347	0	
0.00201617	-0.014425	0	
0.00190448	-0.014409	0	
0.0017902	-0.0143868	0	
0.00167287	-0.0143585	0	
0.00286414	-0.0142331	0	
0.00273302	-0.0142611	0	
0.00260543	-0.0142828	0	
0.00248038	-0.0142982	0	
0.00235688	-0.0143073	0	
0.00223402	-0.0143102	0	
0.0021109	-0.0143068	0	
0.00198669	-0.0142973	0	
0.00186063	-0.0142817	0	
0.00173207	-0.01426	0	
0.00160042	-0.0142323	0	
0.00293582	-0.0140926	0	
0.00279029	-0.0141199	0	
0.00264827	-0.014141	0	
0.00250878	-0.0141561	0	
0.0023709	-0.014165	0	
0.00223371	-0.0141678	0	
0.00209634	-0.0141645	0	
0.00195797	-0.0141553	0	
0.00181783	-0.0141401	0	
0.00167522	-0.0141189	0	
0.00152947	-0.0140918	0	
0.00300566	-0.0139379	0	
0.00284612	-0.0139645	0	
0.00269005	-0.0139851	0	
0.00253653	-0.0139998	0	
0.00238463	-0.0140085	0	
0.00223348	-0.0140113	0	
0.00208221	-0.0140082	0	
0.00193	-0.0139992	0	
0.00177607	-0.0139844	0	
0.00161968	-0.0139637	0	
0.00146008	-0.0139373	0	
0.00307368	-0.0137695	0	
0.00290053	-0.0137954	0	
0.0027308	-0.0138155	0	
0.00256362	-0.0138298	0	
0.00239808	-0.0138383	0	
0.00223332	-0.0138411	0	
0.00206849	-0.0138381	0	
0.00190276	-0.0138294	0	
0.00173534	-0.0138149	0	
0.00156545	-0.0137948	0	
0.00139232	-0.013769	0	
0.00313993	-0.0135877	0	
0.00295352	-0.0136129	0	
0.00277051	-0.0136325	0	
0.00259004	-0.0136464	0	
0.00241123	-0.0136548	0	
0.00223322	-0.0136575	0	
0.00205516	-0.0136546	0	
0.00187624	-0.0136461	0	
0.00169564	-0.0136321	0	
0.00151257	-0.0136125	0	
0.00132621	-0.0135873	0	
0.00320442	-0.0133928	0	
0.00300511	-0.0134173	0	
0.00280919	-0.0134364	0	
0.00261579	-0.01345	0	
0.00242406	-0.0134581	0	
0.00223315	-0.0134608	0	
0.00204222	-0.013458	0	
0.00185043	-0.0134498	0	
0.00165697	-0.0134361	0	
0.00146103	-0.013417	0	
0.00126179	-0.0133925	0	
0.00326717	-0.0131852	0	
0.00305532	-0.0132091	0	
0.00284684	-0.0132276	0	
0.00264087	-0.0132409	0	
0.00243658	-0.0132488	0	
0.00223311	-0.0132514	0	
0.00202964	-0.0132487	0	
0.00182532	-0.0132407	0	
0.00161933	-0.0132275	0	
0.00141085	-0.0132089	0	
0.00119906	-0.013185	0	
0.00332819	-0.0129652	0	
0.00310414	-0.0129884	0	
0.00288345	-0.0130065	0	
0.00266527	-0.0130194	0	
0.00244877	-0.0130271	0	
0.00223309	-0.0130296	0	
0.00201742	-0.013027	0	
0.0018009	-0.0130193	0	
0.00158272	-0.0130064	0	
0.00136204	-0.0129883	0	
0.00113804	-0.0129651	0	
0.00338748	-0.0127332	0	
0.00315159	-0.0127558	0	
0.00291903	-0.0127733	0	
0.00268899	-0.0127858	0	
0.00246062	-0.0127933	0	
0.00223308	-0.0127958	0	
0.00200555	-0.0127933	0	
0.00177718	-0.0127858	0	
0.00154714	-0.0127733	0	
0.0013146	-0.0127557	0	
0.00107874	-0.0127332	0	
0.00344506	-0.0124896	0	
0.00319765	-0.0125115	0	
0.00295358	-0.0125285	0	
0.00271202	-0.0125406	0	
0.00247213	-0.0125479	0	
0.00223308	-0.0125503	0	
0.00199403	-0.0125479	0	
0.00175414	-0.0125406	0	
0.00151259	-0.0125284	0	
0.00126854	-0.0125114	0	
0.00102115	-0.0124895	0	
0.00350092	-0.0122346	0	
0.00324234	-0.0122558	0	
0.0029871	-0.0122723	0	
0.00273437	-0.0122841	0	
0.0024833	-0.0122911	0	
0.00223308	-0.0122935	0	
0.00198285	-0.0122911	0	
0.0017318	-0.0122841	0	
0.00147907	-0.0122723	0	
0.00122385	-0.0122558	0	
0.00096528	-0.0122346	0	
0.00355506	-0.0119686	0	
0.00328565	-0.0119891	0	
0.00301959	-0.0120051	0	
0.00275602	-0.0120165	0	
0.00249413	-0.0120234	0	
0.00223308	-0.0120257	0	
0.00197203	-0.0120234	0	
0.00171014	-0.0120165	0	
0.00144659	-0.0120051	0	
0.00118053	-0.0119891	0	
0.000911131	-0.0119686	0	
0.00360748	-0.0116919	0	
0.00332759	-0.0117118	0	
0.00305104	-0.0117273	0	
0.00277699	-0.0117383	0	
0.00250462	-0.011745	0	
0.00223308	-0.0117472	0	
0.00196154	-0.011745	0	
0.00168917	-0.0117383	0	
0.00141513	-0.0117273	0	
0.00113859	-0.0117118	0	
0.000858703	-0.0116919	0	
0.00365819	-0.011405	0	
0.00336816	-0.0114242	0	
0.00308146	-0.0114391	0	
0.00279728	-0.0114498	0	
0.00251476	-0.0114562	0	
0.00223308	-0.0114584	0	
0.0019514	-0.0114562	0	
0.00166889	-0.0114498	0	
0.00138471	-0.0114391	0	