# vtk DataFile Version 4.1
vtk output
ASCII
DATASET UNSTRUCTURED_GRID

POINTS	1111	float
0	0	0	
0	1	0	
0	2	0	
0	3	0	
0	4	0	
0	5	0	
0	6	0	
0	7	0	
0	8	0	
0	9	0	
0	10	0	
1	0	0	
1	1	0	
1	2	0	
1	3	0	
1	4	0	
1	5	0	
1	6	0	
1	7	0	
1	8	0	
1	9	0	
1	10	0	
2	0	0	
2	1	0	
2	2	0	
2	3	0	
2	4	0	
2	5	0	
2	6	0	
2	7	0	
2	8	0	
2	9	0	
2	10	0	
3	0	0	
3	1	0	
3	2	0	
3	3	0	
3	4	0	
3	5	0	
3	6	0	
3	7	0	
3	8	0	
3	9	0	
3	10	0	
4	0	0	
4	1	0	
4	2	0	
4	3	0	
4	4	0	
4	5	0	
4	6	0	
4	7	0	
4	8	0	
4	9	0	
4	10	0	
5	0	0	
5	1	0	
5	2	0	
5	3	0	
5	4	0	
5	5	0	
5	6	0	
5	7	0	
5	8	0	
5	9	0	
5	10	0	
6	0	0	
6	1	0	
6	2	0	
6	3	0	
6	4	0	
6	5	0	
6	6	0	
6	7	0	
6	8	0	
6	9	0	
6	10	0	
7	0	0	
7	1	0	
7	2	0	
7	3	0	
7	4	0	
7	5	0	
7	6	0	
7	7	0	
7	8	0	
7	9	0	
7	10	0	
8	0	0	
8	1	0	
8	2	0	
8	3	0	
8	4	0	
8	5	0	
8	6	0	
8	7	0	
8	8	0	
8	9	0	
8	10	0	
9	0	0	
9	1	0	
9	2	0	
9	3	0	
9	4	0	
9	5	0	
9	6	0	
9	7	0	
9	8	0	
9	9	0	
9	10	0	
10	0	0	
10	1	0	
10	2	0	
10	3	0	
10	4	0	
10	5	0	
10	6	0	
10	7	0	
10	8	0	
10	9	0	
10	10	0	
11	0	0	
11	1	0	
11	2	0	
11	3	0	
11	4	0	
11	5	0	
11	6	0	
11	7	0	
11	8	0	
11	9	0	
11	10	0	
12	0	0	
12	1	0	
12	2	0	
12	3	0	
12	4	0	
12	5	0	
12	6	0	
12	7	0	
12	8	0	
12	9	0	
12	10	0	
13	0	0	
13	1	0	
13	2	0	
13	3	0	
13	4	0	
13	5	0	
13	6	0	
13	7	0	
13	8	0	
13	9	0	
13	10	0	
14	0	0	
14	1	0	
14	2	0	
14	3	0	
14	4	0	
14	5	0	
14	6	0	
14	7	0	
14	8	0	
14	9	0	
14	10	0	
15	0	0	
15	1	0	
15	2	0	
15	3	0	
15	4	0	
15	5	0	
15	6	0	
15	7	0	
15	8	0	
15	9	0	
15	10	0	
16	0	0	
16	1	0	
16	2	0	
16	3	0	
16	4	0	
16	5	0	
16	6	0	
16	7	0	
16	8	0	
16	9	0	
16	10	0	
17	0	0	
17	1	0	
17	2	0	
17	3	0	
17	4	0	
17	5	0	
17	6	0	
17	7	0	
17	8	0	
17	9	0	
17	10	0	
18	0	0	
18	1	0	
18	2	0	
18	3	0	
18	4	0	
18	5	0	
18	6	0	
18	7	0	
18	8	0	
18	9	0	
18	10	0	
19	0	0	
19	1	0	
19	2	0	
19	3	0	
19	4	0	
19	5	0	
19	6	0	
19	7	0	
19	8	0	
19	9	0	
19	10	0	
20	0	0	
20	1	0	
20	2	0	
20	3	0	
20	4	0	
20	5	0	
20	6	0	
20	7	0	
20	8	0	
20	9	0	
20	10	0	
21	0	0	
21	1	0	
21	2	0	
21	3	0	
21	4	0	
21	5	0	
21	6	0	
21	7	0	
21	8	0	
21	9	0	
21	10	0	
22	0	0	
22	1	0	
22	2	0	
22	3	0	
22	4	0	
22	5	0	
22	6	0	
22	7	0	
22	8	0	
22	9	0	
22	10	0	
23	0	0	
23	1	0	
23	2	0	
23	3	0	
23	4	0	
23	5	0	
23	6	0	
23	7	0	
23	8	0	
23	9	0	
23	10	0	
24	0	0	
24	1	0	
24	2	0	
24	3	0	
24	4	0	
24	5	0	
24	6	0	
24	7	0	
24	8	0	
24	9	0	
24	10	0	
25	0	0	
25	1	0	
25	2	0	
25	3	0	
25	4	0	
25	5	0	
25	6	0	
25	7	0	
25	8	0	
25	9	0	
25	10	0	
26	0	0	
26	1	0	
26	2	0	
26	3	0	
26	4	0	
26	5	0	
26	6	0	
26	7	0	
26	8	0	
26	9	0	
26	10	0	
27	0	0	
27	1	0	
27	2	0	
27	3	0	
27	4	0	
27	5	0	
27	6	0	
27	7	0	
27	8	0	
27	9	0	
27	10	0	
28	0	0	
28	1	0	
28	2	0	
28	3	0	
28	4	0	
28	5	0	
28	6	0	
28	7	0	
28	8	0	
28	9	0	
28	10	0	
29	0	0	
29	1	0	
29	2	0	
29	3	0	
29	4	0	
29	5	0	
29	6	0	
29	7	0	
29	8	0	
29	9	0	
29	10	0	
30	0	0	
30	1	0	
30	2	0	
30	3	0	
30	4	0	
30	5	0	
30	6	0	
30	7	0	
30	8	0	
30	9	0	
30	10	0	
31	0	0	
31	1	0	
31	2	0	
31	3	0	
31	4	0	
31	5	0	
31	6	0	
31	7	0	
31	8	0	
31	9	0	
31	10	0	
32	0	0	
32	1	0	
32	2	0	
32	3	0	
32	4	0	
32	5	0	
32	6	0	
32	7	0	
32	8	0	
32	9	0	
32	10	0	
33	0	0	
33	1	0	
33	2	0	
33	3	0	
33	4	0	
33	5	0	
33	6	0	
33	7	0	
33	8	0	
33	9	0	
33	10	0	
34	0	0	
34	1	0	
34	2	0	
34	3	0	
34	4	0	
34	5	0	
34	6	0	
34	7	0	
34	8	0	
34	9	0	
34	10	0	
35	0	0	
35	1	0	
35	2	0	
35	3	0	
35	4	0	
35	5	0	
35	6	0	
35	7	0	
35	8	0	
35	9	0	
35	10	0	
36	0	0	
36	1	0	
36	2	0	
36	3	0	
36	4	0	
36	5	0	
36	6	0	
36	7	0	
36	8	0	
36	9	0	
36	10	0	
37	0	0	
37	1	0	
37	2	0	
37	3	0	
37	4	0	
37	5	0	
37	6	0	
37	7	0	
37	8	0	
37	9	0	
37	10	0	
38	0	0	
38	1	0	
38	2	0	
38	3	0	
38	4	0	
38	5	0	
38	6	0	
38	7	0	
38	8	0	
38	9	0	
38	10	0	
39	0	0	
39	1	0	
39	2	0	
39	3	0	
39	4	0	
39	5	0	
39	6	0	
39	7	0	
39	8	0	
39	9	0	
39	10	0	
40	0	0	
40	1	0	
40	2	0	
40	3	0	
40	4	0	
40	5	0	
40	6	0	
40	7	0	
40	8	0	
40	9	0	
40	10	0	
41	0	0	
41	1	0	
41	2	0	
41	3	0	
41	4	0	
41	5	0	
41	6	0	
41	7	0	
41	8	0	
41	9	0	
41	10	0	
42	0	0	
42	1	0	
42	2	0	
42	3	0	
42	4	0	
42	5	0	
42	6	0	
42	7	0	
42	8	0	
42	9	0	
42	10	0	
43	0	0	
43	1	0	
43	2	0	
43	3	0	
43	4	0	
43	5	0	
43	6	0	
43	7	0	
43	8	0	
43	9	0	
43	10	0	
44	0	0	
44	1	0	
44	2	0	
44	3	0	
44	4	0	
44	5	0	
44	6	0	
44	7	0	
44	8	0	
44	9	0	
44	10	0	
45	0	0	
45	1	0	
45	2	0	
45	3	0	
45	4	0	
45	5	0	
45	6	0	
45	7	0	
45	8	0	
45	9	0	
45	10	0	
46	0	0	
46	1	0	
46	2	0	
46	3	0	
46	4	0	
46	5	0	
46	6	0	
46	7	0	
46	8	0	
46	9	0	
46	10	0	
47	0	0	
47	1	0	
47	2	0	
47	3	0	
47	4	0	
47	5	0	
47	6	0	
47	7	0	
47	8	0	
47	9	0	
47	10	0	
48	0	0	
48	1	0	
48	2	0	
48	3	0	
48	4	0	
48	5	0	
48	6	0	
48	7	0	
48	8	0	
48	9	0	
48	10	0	
49	0	0	
49	1	0	
49	2	0	
49	3	0	
49	4	0	
49	5	0	
49	6	0	
49	7	0	
49	8	0	
49	9	0	
49	10	0	
50	0	0	
50	1	0	
50	2	0	
50	3	0	
50	4	0	
50	5	0	
50	6	0	
50	7	0	
50	8	0	
50	9	0	
50	10	0	
51	0	0	
51	1	0	
51	2	0	
51	3	0	
51	4	0	
51	5	0	
51	6	0	
51	7	0	
51	8	0	
51	9	0	
51	10	0	
52	0	0	
52	1	0	
52	2	0	
52	3	0	
52	4	0	
52	5	0	
52	6	0	
52	7	0	
52	8	0	
52	9	0	
52	10	0	
53	0	0	
53	1	0	
53	2	0	
53	3	0	
53	4	0	
53	5	0	
53	6	0	
53	7	0	
53	8	0	
53	9	0	
53	10	0	
54	0	0	
54	1	0	
54	2	0	
54	3	0	
54	4	0	
54	5	0	
54	6	0	
54	7	0	
54	8	0	
54	9	0	
54	10	0	
55	0	0	
55	1	0	
55	2	0	
55	3	0	
55	4	0	
55	5	0	
55	6	0	
55	7	0	
55	8	0	
55	9	0	
55	10	0	
56	0	0	
56	1	0	
56	2	0	
56	3	0	
56	4	0	
56	5	0	
56	6	0	
56	7	0	
56	8	0	
56	9	0	
56	10	0	
57	0	0	
57	1	0	
57	2	0	
57	3	0	
57	4	0	
57	5	0	
57	6	0	
57	7	0	
57	8	0	
57	9	0	
57	10	0	
58	0	0	
58	1	0	
58	2	0	
58	3	0	
58	4	0	
58	5	0	
58	6	0	
58	7	0	
58	8	0	
58	9	0	
58	10	0	
59	0	0	
59	1	0	
59	2	0	
59	3	0	
59	4	0	
59	5	0	
59	6	0	
59	7	0	
59	8	0	
59	9	0	
59	10	0	
60	0	0	
60	1	0	
60	2	0	
60	3	0	
60	4	0	
60	5	0	
60	6	0	
60	7	0	
60	8	0	
60	9	0	
60	10	0	
61	0	0	
61	1	0	
61	2	0	
61	3	0	
61	4	0	
61	5	0	
61	6	0	
61	7	0	
61	8	0	
61	9	0	
61	10	0	
62	0	0	
62	1	0	
62	2	0	
62	3	0	
62	4	0	
62	5	0	
62	6	0	
62	7	0	
62	8	0	
62	9	0	
62	10	0	
63	0	0	
63	1	0	
63	2	0	
63	3	0	
63	4	0	
63	5	0	
63	6	0	
63	7	0	
63	8	0	
63	9	0	
63	10	0	
64	0	0	
64	1	0	
64	2	0	
64	3	0	
64	4	0	
64	5	0	
64	6	0	
64	7	0	
64	8	0	
64	9	0	
64	10	0	
65	0	0	
65	1	0	
65	2	0	
65	3	0	
65	4	0	
65	5	0	
65	6	0	
65	7	0	
65	8	0	
65	9	0	
65	10	0	
66	0	0	
66	1	0	
66	2	0	
66	3	0	
66	4	0	
66	5	0	
66	6	0	
66	7	0	
66	8	0	
66	9	0	
66	10	0	
67	0	0	
67	1	0	
67	2	0	
67	3	0	
67	4	0	
67	5	0	
67	6	0	
67	7	0	
67	8	0	
67	9	0	
67	10	0	
68	0	0	
68	1	0	
68	2	0	
68	3	0	
68	4	0	
68	5	0	
68	6	0	
68	7	0	
68	8	0	
68	9	0	
68	10	0	
69	0	0	
69	1	0	
69	2	0	
69	3	0	
69	4	0	
69	5	0	
69	6	0	
69	7	0	
69	8	0	
69	9	0	
69	10	0	
70	0	0	
70	1	0	
70	2	0	
70	3	0	
70	4	0	
70	5	0	
70	6	0	
70	7	0	
70	8	0	
70	9	0	
70	10	0	
71	0	0	
71	1	0	
71	2	0	
71	3	0	
71	4	0	
71	5	0	
71	6	0	
71	7	0	
71	8	0	
71	9	0	
71	10	0	
72	0	0	
72	1	0	
72	2	0	
72	3	0	
72	4	0	
72	5	0	
72	6	0	
72	7	0	
72	8	0	
72	9	0	
72	10	0	
73	0	0	
73	1	0	
73	2	0	
73	3	0	
73	4	0	
73	5	0	
73	6	0	
73	7	0	
73	8	0	
73	9	0	
73	10	0	
74	0	0	
74	1	0	
74	2	0	
74	3	0	
74	4	0	
74	5	0	
74	6	0	
74	7	0	
74	8	0	
74	9	0	
74	10	0	
75	0	0	
75	1	0	
75	2	0	
75	3	0	
75	4	0	
75	5	0	
75	6	0	
75	7	0	
75	8	0	
75	9	0	
75	10	0	
76	0	0	
76	1	0	
76	2	0	
76	3	0	
76	4	0	
76	5	0	
76	6	0	
76	7	0	
76	8	0	
76	9	0	
76	10	0	
77	0	0	
77	1	0	
77	2	0	
77	3	0	
77	4	0	
77	5	0	
77	6	0	
77	7	0	
77	8	0	
77	9	0	
77	10	0	
78	0	0	
78	1	0	
78	2	0	
78	3	0	
78	4	0	
78	5	0	
78	6	0	
78	7	0	
78	8	0	
78	9	0	
78	10	0	
79	0	0	
79	1	0	
79	2	0	
79	3	0	
79	4	0	
79	5	0	
79	6	0	
79	7	0	
79	8	0	
79	9	0	
79	10	0	
80	0	0	
80	1	0	
80	2	0	
80	3	0	
80	4	0	
80	5	0	
80	6	0	
80	7	0	
80	8	0	
80	9	0	
80	10	0	
81	0	0	
81	1	0	
81	2	0	
81	3	0	
81	4	0	
81	5	0	
81	6	0	
81	7	0	
81	8	0	
81	9	0	
81	10	0	
82	0	0	
82	1	0	
82	2	0	
82	3	0	
82	4	0	
82	5	0	
82	6	0	
82	7	0	
82	8	0	
82	9	0	
82	10	0	
83	0	0	
83	1	0	
83	2	0	
83	3	0	
83	4	0	
83	5	0	
83	6	0	
83	7	0	
83	8	0	
83	9	0	
83	10	0	
84	0	0	
84	1	0	
84	2	0	
84	3	0	
84	4	0	
84	5	0	
84	6	0	
84	7	0	
84	8	0	
84	9	0	
84	10	0	
85	0	0	
85	1	0	
85	2	0	
85	3	0	
85	4	0	
85	5	0	
85	6	0	
85	7	0	
85	8	0	
85	9	0	
85	10	0	
86	0	0	
86	1	0	
86	2	0	
86	3	0	
86	4	0	
86	5	0	
86	6	0	
86	7	0	
86	8	0	
86	9	0	
86	10	0	
87	0	0	
87	1	0	
87	2	0	
87	3	0	
87	4	0	
87	5	0	
87	6	0	
87	7	0	
87	8	0	
87	9	0	
87	10	0	
88	0	0	
88	1	0	
88	2	0	
88	3	0	
88	4	0	
88	5	0	
88	6	0	
88	7	0	
88	8	0	
88	9	0	
88	10	0	
89	0	0	
89	1	0	
89	2	0	
89	3	0	
89	4	0	
89	5	0	
89	6	0	
89	7	0	
89	8	0	
89	9	0	
89	10	0	
90	0	0	
90	1	0	
90	2	0	
90	3	0	
90	4	0	
90	5	0	
90	6	0	
90	7	0	
90	8	0	
90	9	0	
90	10	0	
91	0	0	
91	1	0	
91	2	0	
91	3	0	
91	4	0	
91	5	0	
91	6	0	
91	7	0	
91	8	0	
91	9	0	
91	10	0	
92	0	0	
92	1	0	
92	2	0	
92	3	0	
92	4	0	
92	5	0	
92	6	0	
92	7	0	
92	8	0	
92	9	0	
92	10	0	
93	0	0	
93	1	0	
93	2	0	
93	3	0	
93	4	0	
93	5	0	
93	6	0	
93	7	0	
93	8	0	
93	9	0	
93	10	0	
94	0	0	
94	1	0	
94	2	0	
94	3	0	
94	4	0	
94	5	0	
94	6	0	
94	7	0	
94	8	0	
94	9	0	
94	10	0	
95	0	0	
95	1	0	
95	2	0	
95	3	0	
95	4	0	
95	5	0	
95	6	0	
95	7	0	
95	8	0	
95	9	0	
95	10	0	
96	0	0	
96	1	0	
96	2	0	
96	3	0	
96	4	0	
96	5	0	
96	6	0	
96	7	0	
96	8	0	
96	9	0	
96	10	0	
97	0	0	
97	1	0	
97	2	0	
97	3	0	
97	4	0	
97	5	0	
97	6	0	
97	7	0	
97	8	0	
97	9	0	
97	10	0	
98	0	0	
98	1	0	
98	2	0	
98	3	0	
98	4	0	
98	5	0	
98	6	0	
98	7	0	
98	8	0	
98	9	0	
98	10	0	
99	0	0	
99	1	0	
99	2	0	
99	3	0	
99	4	0	
99	5	0	
99	6	0	
99	7	0	
99	8	0	
99	9	0	
99	10	0	
100	0	0	
100	1	0	
100	2	0	
100	3	0	
100	4	0	
100	5	0	
100	6	0	
100	7	0	
100	8	0	
100	9	0	
100	10	0	

CELLS 1000	5000
4	0	11	12	1	
4	1	12	13	2	
4	2	13	14	3	
4	3	14	15	4	
4	4	15	16	5	
4	5	16	17	6	
4	6	17	18	7	
4	7	18	19	8	
4	8	19	20	9	
4	9	20	21	10	
4	11	22	23	12	
4	12	23	24	13	
4	13	24	25	14	
4	14	25	26	15	
4	15	26	27	16	
4	16	27	28	17	
4	17	28	29	18	
4	18	29	30	19	
4	19	30	31	20	
4	20	31	32	21	
4	22	33	34	23	
4	23	34	35	24	
4	24	35	36	25	
4	25	36	37	26	
4	26	37	38	27	
4	27	38	39	28	
4	28	39	40	29	
4	29	40	41	30	
4	30	41	42	31	
4	31	42	43	32	
4	33	44	45	34	
4	34	45	46	35	
4	35	46	47	36	
4	36	47	48	37	
4	37	48	49	38	
4	38	49	50	39	
4	39	50	51	40	
4	40	51	52	41	
4	41	52	53	42	
4	42	53	54	43	
4	44	55	56	45	
4	45	56	57	46	
4	46	57	58	47	
4	47	58	59	48	
4	48	59	60	49	
4	49	60	61	50	
4	50	61	62	51	
4	51	62	63	52	
4	52	63	64	53	
4	53	64	65	54	
4	55	66	67	56	
4	56	67	68	57	
4	57	68	69	58	
4	58	69	70	59	
4	59	70	71	60	
4	60	71	72	61	
4	61	72	73	62	
4	62	73	74	63	
4	63	74	75	64	
4	64	75	76	65	
4	66	77	78	67	
4	67	78	79	68	
4	68	79	80	69	
4	69	80	81	70	
4	70	81	82	71	
4	71	82	83	72	
4	72	83	84	73	
4	73	84	85	74	
[...]
POINT_DATA	1111
VECTORS u float
-1.0214e-025	-5.48818e-015	0	
4.94043e-005	-6.58202e-006	0	
9.38629e-005	-1.03994e-005	0	
0.000137133	-1.27639e-005	0	
0.000179885	-1.43324e-005	0	
0.000222389	-1.53772e-005	0	
0.000264802	-1.60331e-005	0	
0.000307237	-1.63908e-005	0	
0.000349778	-1.65338e-005	0	
0.000392468	-1.65553e-005	0	
0.00043527	-1.65497e-005	0	
2.69161e-006	-5.43966e-005	0	
5.0289e-005	-5.44546e-005	0	
9.4626e-005	-5.53368e-005	0	
0.000137726	-5.64828e-005	0	
0.000180323	-5.74751e-005	0	
0.00022269	-5.82357e-005	0	
0.000264987	-5.87707e-005	0	
0.000307328	-5.91099e-005	0	
0.0003498	-5.92917e-005	0	
0.000392456	-5.93605e-005	0	
0.000435276	-5.93726e-005	0	
4.78052e-006	-0.00010015	0	
5.02003e-005	-0.000100635	0	
9.46735e-005	-0.000100635	0	
0.000137903	-0.000100882	0	
0.000180516	-0.000101278	0	
0.000222844	-0.000101672	0	
0.000265078	-0.00010199	0	
0.000307352	-0.000102203	0	
0.000349766	-0.000102311	0	
0.000392386	-0.00010233	0	
0.000435255	-0.000102306	0	
6.38581e-006	-0.000144686	0	
5.06618e-005	-0.000145071	0	
9.46153e-005	-0.000145166	0	
0.000137857	-0.000145163	0	
0.000180509	-0.000145233	0	
0.000222836	-0.000145352	0	
0.000265036	-0.000145462	0	
0.000307258	-0.000145528	0	
0.000349616	-0.000145528	0	
0.000392205	-0.000145467	0	
0.000435121	-0.000145376	0	
7.67648e-006	-0.000188495	0	
5.13361e-005	-0.000188898	0	
9.4805e-005	-0.000189066	0	
0.000137837	-0.000189085	0	
0.00018043	-0.000189059	0	
0.000222722	-0.000189035	0	
0.000264877	-0.000189006	0	
0.00030704	-0.000188949	0	
0.000349336	-0.000188849	0	
0.000391881	-0.000188705	0	
0.000434803	-0.000188531	0	
8.86868e-006	-0.000231936	0	
5.21253e-005	-0.000232356	0	
9.51919e-005	-0.000232597	0	
0.000137949	-0.000232677	0	
0.000180382	-0.00023266	0	
0.000222571	-0.000232592	0	
0.000264638	-0.000232489	0	
0.000306714	-0.000232352	0	
0.000348924	-0.000232173	0	
0.000391395	-0.00023195	0	
0.000434266	-0.000231689	0	
1.00671e-005	-0.000275097	0	
5.30082e-005	-0.000275551	0	
9.57298e-005	-0.000275851	0	
0.000138193	-0.000275998	0	
0.000180406	-0.000276021	0	
0.000222427	-0.000275958	0	
0.000264354	-0.000275829	0	
0.000306301	-0.000275644	0	
0.000348389	-0.000275407	0	
0.000390743	-0.000275115	0	
0.000433498	-0.000274766	0	
1.13352e-005	-0.000318007	0	
5.39887e-005	-0.000318505	0	
9.63916e-005	-0.000318861	0	
0.000138555	-0.000319066	0	
0.000180508	-0.000319138	0	
0.00022231	-0.000319098	0	
0.000264045	-0.000318967	0	
0.000305817	-0.000318757	0	
0.000347737	-0.000318476	0	
0.000389924	-0.000318122	0	
0.000432503	-0.00031769	0	
1.27117e-005	-0.000360661	0	
5.50762e-005	-0.000361211	0	
9.71643e-005	-0.00036162	0	
0.000139017	-0.000361879	0	
0.000180682	-0.000361995	0	
0.000222223	-0.000361984	0	
0.000263721	-0.000361861	0	
0.000305269	-0.000361637	0	
0.000346973	-0.000361319	0	
0.000388943	-0.000360908	0	
0.000431292	-0.000360397	0	
1.42207e-005	-0.000403039	0	
5.62795e-005	-0.000403646	0	
9.80425e-005	-0.000404107	0	
0.000139569	-0.000404415	0	
0.000180919	-0.000404572	0	
0.000222163	-0.000404588	0	
0.00026338	-0.000404474	0	
0.000304661	-0.000404239	0	
0.000346102	-0.000403889	0	
0.000387806	-0.000403424	0	
0.000429878	-0.000402838	0	
1.58781e-005	-0.000445112	0	
5.76059e-005	-0.00044578	0	
9.9024e-005	-0.000446293	0	
0.000140203	-0.000446646	0	
0.000181211	-0.00044684	0	
0.000222124	-0.00044688	0	
0.000263022	-0.000446773	0	
0.000303991	-0.000446526	0	
0.000345125	-0.000446144	0	
0.000386519	-0.000445627	0	
0.000428269	-0.000444969	0	
1.76937e-005	-0.000486848	0	
5.90606e-005	-0.00048758	0	
0.000100108	-0.000488145	0	
0.000140913	-0.00048854	0	
0.000181552	-0.000488766	0	
0.0002221	-0.000488825	0	
0.000262641	-0.000488723	0	
0.000303259	-0.000488463	0	
0.000344043	-0.000488048	0	
0.000385086	-0.000487479	0	
0.000426476	-0.000486752	0	
1.96738e-005	-0.000528213	0	
6.06473e-005	-0.000529009	0	
0.000101295	-0.000529626	0	
0.000141698	-0.000530062	0	
0.000181935	-0.000530317	0	
0.000222086	-0.000530392	0	
0.000262234	-0.00053029	0	
0.000302462	-0.000530015	0	
0.000342858	-0.000529567	0	
0.000383509	-0.000528947	0	
0.000424503	-0.000528152	0	
2.18221e-005	-0.00056917	0	
6.23682e-005	-0.000570032	0	
0.000102585	-0.000570701	0	
0.000142555	-0.000571177	0	
0.000182359	-0.000571458	0	
0.000222079	-0.000571546	0	
0.000261798	-0.000571443	0	
0.000301599	-0.000571149	0	
0.000341569	-0.000570667	0	
0.000381793	-0.000569996	0	
0.000422355	-0.000569133	0	
2.41407e-005	-0.000609685	0	
6.4225e-005	-0.000610613	0	
0.000103977	-0.000611334	0	
0.000143482	-0.000611848	0	
0.00018282	-0.000612154	0	
0.000222075	-0.000612253	0	
0.000261331	-0.000612146	0	
0.00030067	-0.000611833	0	
0.000340177	-0.000611316	0	
0.000379937	-0.000610593	0	
0.000420032	-0.000609664	0	
2.66308e-005	-0.000649722	0	
6.62185e-005	-0.000650716	0	
0.000105473	-0.000651489	0	
0.000144478	-0.00065204	0	
0.000183318	-0.00065237	0	
0.000222074	-0.000652479	0	
0.000260831	-0.000652367	0	
0.000299672	-0.000652034	0	
0.000338681	-0.00065148	0	
0.000377942	-0.000650706	0	
0.000417538	-0.000649711	0	
2.9293e-005	-0.000689245	0	
6.83492e-005	-0.000690305	0	
0.000107072	-0.00069113	0	
0.000145544	-0.000691719	0	
0.00018385	-0.000692072	0	
0.000222074	-0.000692189	0	
0.000260298	-0.000692071	0	
0.000298607	-0.000691717	0	
0.000337083	-0.000691127	0	
0.00037581	-0.000690301	0	
0.000414872	-0.00068924	0	
3.21275e-005	-0.000728219	0	
7.06175e-005	-0.000729346	0	
0.000108773	-0.000730222	0	
0.000146679	-0.000730848	0	
0.000184418	-0.000731224	0	
0.000222074	-0.000731349	0	
0.000259731	-0.000731224	0	
0.000297473	-0.000730848	0	
0.000335381	-0.000730222	0	
0.000373541	-0.000729345	0	
0.000412034	-0.000728218	0	
3.51343e-005	-0.00076661	0	
7.30233e-005	-0.000767803	0	
0.000110578	-0.000768731	0	
0.000147882	-0.000769394	0	
0.00018502	-0.000769792	0	
0.000222075	-0.000769925	0	
0.00025913	-0.000769793	0	
0.00029627	-0.000769395	0	
0.000333576	-0.000768732	0	
0.000371134	-0.000767804	0	
0.000409024	-0.00076661	0	
3.83133e-005	-0.000804382	0	
7.55668e-005	-0.000805642	0	
0.000112486	-0.000806621	0	
0.000149155	-0.000807321	0	
0.000185657	-0.000807741	0	
0.000222076	-0.000807882	0	
0.000258495	-0.000807742	0	
0.000294998	-0.000807322	0	
0.000331668	-0.000806623	0	
0.000368589	-0.000805643	0	
0.000405844	-0.000804383	0	
4.16646e-005	-0.000841501	0	
7.82479e-005	-0.000842827	0	
0.000114497	-0.000843859	0	
0.000150496	-0.000844595	0	
0.000186328	-0.000845038	0	
0.000222076	-0.000845185	0	
0.000257825	-0.000845038	0	
0.000293657	-0.000844597	0	
0.000329657	-0.00084386	0	
0.000365907	-0.000842829	0	
0.000402491	-0.000841503	0	
4.51879e-005	-0.000877933	0	
8.10667e-005	-0.000879326	0	
0.000116611	-0.000880409	0	
0.000151905	-0.000881182	0	
0.000187033	-0.000881647	0	
0.000222076	-0.000881802	0	
0.00025712	-0.000881647	0	
0.000292248	-0.000881183	0	
0.000327543	-0.00088041	0	
0.000363088	-0.000879327	0	
0.000398967	-0.000877935	0	
4.88833e-005	-0.000913644	0	
8.4023e-005	-0.000915102	0	
0.000118829	-0.000916237	0	
0.000153384	-0.000917047	0	
0.000187772	-0.000917533	0	
0.000222077	-0.000917696	0	
0.000256382	-0.000917534	0	
0.00029077	-0.000917048	0	
0.000325326	-0.000916238	0	
0.000360131	-0.000915103	0	
0.000395271	-0.000913644	0	
5.27507e-005	-0.000948597	0	
8.7117e-005	-0.000950122	0	
0.000121149	-0.000951308	0	
0.000154931	-0.000952156	0	
0.000188546	-0.000952664	0	
0.000222077	-0.000952834	0	
0.000255608	-0.000952664	0	
0.000289223	-0.000952156	0	
0.000323005	-0.000951309	0	
0.000357037	-0.000950123	0	
0.000391404	-0.000948598	0	
5.679e-005	-0.00098276	0	
9.03484e-005	-0.000984352	0	
0.000123573	-0.000985589	0	
0.000156547	-0.000986473	0	
0.000189354	-0.000987004	0	
0.000222077	-0.000987181	0	
0.0002548	-0.000987004	0	
0.000287607	-0.000986474	0	
0.000320581	-0.00098559	0	
0.000353806	-0.000984352	0	
0.000387364	-0.000982761	0	
6.10013e-005	-0.0010161	0	
9.37174e-005	-0.00101776	0	
0.0001261	-0.00101905	0	
0.000158231	-0.00101997	0	
0.000190196	-0.00102052	0	
0.000222077	-0.0010207	0	
0.000253958	-0.00102052	0	
0.000285923	-0.00101997	0	
0.000318055	-0.00101905	0	
0.000350437	-0.00101776	0	
0.000383153	-0.0010161	0	
6.53844e-005	-0.00104858	0	
9.72239e-005	-0.0010503	0	
0.000128729	-0.00105164	0	
0.000159985	-0.0010526	0	
0.000191073	-0.00105317	0	
0.000222077	-0.00105337	0	
0.000253082	-0.00105317	0	
0.00028417	-0.0010526	0	
0.000315425	-0.00105164	0	
0.00034693	-0.0010503	0	
0.00037877	-0.00104858	0	
6.99394e-005	-0.00108016	0	
0.000100868	-0.00108195	0	
0.000131462	-0.00108334	0	
0.000161807	-0.00108434	0	
0.000191984	-0.00108494	0	
0.000222077	-0.00108513	0	
0.000252171	-0.00108494	0	
0.000282348	-0.00108434	0	
0.000312692	-0.00108334	0	
0.000343286	-0.00108195	0	
0.000374214	-0.00108016	0	
7.46663e-005	-0.00111082	0	
0.000104649	-0.00111267	0	
0.000134299	-0.00111412	0	
0.000163697	-0.00111515	0	
0.000192929	-0.00111577	0	
0.000222077	-0.00111598	0	
0.000251225	-0.00111577	0	
0.000280457	-0.00111515	0	
0.000309855	-0.00111412	0	
0.000339504	-0.00111267	0	
0.000369487	-0.00111082	0	
7.9565e-005	-0.00114051	0	
0.000108568	-0.00114243	0	
0.000137238	-0.00114393	0	
0.000165657	-0.001145	0	
0.000193909	-0.00114564	0	
0.000222077	-0.00114585	0	
0.000250246	-0.00114564	0	
0.000278498	-0.001145	0	
0.000306916	-0.00114393	0	
0.000335585	-0.00114244	0	
0.000364588	-0.00114051	0	
8.46355e-005	-0.00116921	0	
0.000112625	-0.0011712	0	
0.00014028	-0.00117275	0	
0.000167685	-0.00117385	0	
0.000194923	-0.00117451	0	
0.000222078	-0.00117473	0	
0.000249232	-0.00117451	0	
0.000276469	-0.00117385	0	
0.000303874	-0.00117275	0	
0.000331529	-0.0011712	0	
0.000359517	-0.00116921	0	
8.98778e-005	-0.00119688	0	
0.000116819	-0.00119893	0	
0.000143426	-0.00120053	0	
0.000169782	-0.00120167	0	
0.000195972	-0.00120236	0	
0.000222078	-0.00120258	0	
0.000248183	-0.00120236	0	
0.000274372	-0.00120167	0	
0.000300728	-0.00120053	0	
0.000327334	-0.00119893	0	
0.000354274	-0.00119687	0	
9.52919e-005	-0.00122348	0	
0.00012115	-0.0012256	0	
0.000146675	-0.00122725	0	
0.000171948	-0.00122843	0	
0.000197055	-0.00122913	0	
0.000222078	-0.00122937	0	
0.000247101	-0.00122913	0	
0.000272207	-0.00122842	0	
0.000297479	-0.00122725	0	
0.000323003	-0.0012256	0	
0.00034886	-0.00122347	0	
0.000100878	-0.00124898	0	
0.000125619	-0.00125116	0	
0.000150026	-0.00125287	0	
0.000174183	-0.00125408	0	
0.000198172	-0.00125481	0	
0.000222078	-0.00125505	0	
0.000245983	-0.00125481	0	
0.000269972	-0.00125408	0	
0.000294128	-0.00125286	0	
0.000318533	-0.00125116	0	
0.000343273	-0.00124897	0	
0.000106636	-0.00127334	0	
0.000130226	-0.0012756	0	
0.000153481	-0.00127735	0	
0.000176486	-0.0012786	0	
0.000199324	-0.00127935	0	
0.000222077	-0.0012796	0	
0.000244831	-0.00127935	0	
0.000267669	-0.0012786	0	
0.000290673	-0.00127734	0	
0.000313927	-0.00127559	0	
0.000337514	-0.00127334	0	
0.000112565	-0.00129654	0	
0.00013497	-0.00129886	0	
0.00015704	-0.00130067	0	
0.000178858	-0.00130195	0	
0.000200509	-0.00130273	0	
0.000222076	-0.00130298	0	
0.000243644	-0.00130272	0	
0.000265296	-0.00130195	0	
0.000287115	-0.00130066	0	
0.000309183	-0.00129885	0	
0.000331583	-0.00129653	0	
0.000118667	-0.00131854	0	
0.000139852	-0.00132092	0	
0.000160701	-0.00132278	0	
0.000181298	-0.00132411	0	
0.000201727	-0.0013249	0	
0.000222074	-0.00132516	0	
0.000242422	-0.00132489	0	
0.000262854	-0.00132409	0	
0.000283453	-0.00132276	0	
0.000304302	-0.00132091	0	
0.000325481	-0.00131852	0	
0.000124943	-0.0013393	0	
0.000144873	-0.00134175	0	
0.000164466	-0.00134366	0	
0.000183806	-0.00134502	0	
0.000202979	-0.00134583	0	
0.00022207	-0.0013461	0	
0.000241164	-0.00134582	0	
0.000260343	-0.001345	0	
0.000279689	-0.00134363	0	
0.000299284	-0.00134172	0	
0.000319208	-0.00133927	0	
0.000131392	-0.00135879	0	
0.000150033	-0.00136131	0	
0.000168333	-0.00136327	0	
0.000186381	-0.00136466	0	
0.000204263	-0.0013655	0	
0.000222064	-0.00136577	0	
0.00023987	-0.00136548	0	
0.000257762	-0.00136463	0	
0.000275822	-0.00136323	0	
0.00029413	-0.00136127	0	
0.000312766	-0.00135875	0	
0.000138016	-0.00137697	0	
0.000155332	-0.00137956	0	
0.000172305	-0.00138157	0	
0.000189024	-0.001383	0	
0.000205577	-0.00138385	0	
0.000222054	-0.00138413	0	
0.000238537	-0.00138383	0	
0.00025511	-0.00138296	0	
0.000271852	-0.00138151	0	
0.000288841	-0.0013795	0	
0.000306155	-0.00137692	0	
0.000144819	-0.00139382	0	
0.000160773	-0.00139647	0	
0.00017638	-0.00139854	0	
0.000191732	-0.0014	0	
0.000206922	-0.00140087	0	
0.000222038	-0.00140115	0	
0.000237165	-0.00140084	0	
0.000252386	-0.00139994	0	
0.000267779	-0.00139846	0	
0.000283419	-0.00139639	0	
0.000299378	-0.00139375	0	
0.000151802	-0.00140928	0	
0.000166356	-0.00141201	0	
0.000180558	-0.00141412	0	
0.000194507	-0.00141563	0	
0.000208295	-0.00141652	0	
0.000222015	-0.0014168	0	
0.000235752	-0.00141647	0	
0.000249589	-0.00141555	0	
0.000263603	-0.00141403	0	
0.000277864	-0.00141191	0	
0.00029244	-0.0014092	0	
0.000158971	-0.00142333	0	
0.000172083	-0.00142613	0	
0.000184842	-0.0014283	0	
0.000197347	-0.00142984	0	
0.000209697	-0.00143075	0	
0.000221984	-0.00143104	0	
0.000234296	-0.0014307	0	
0.000246717	-0.00142975	0	
0.000259323	-0.00142819	0	
0.000272179	-0.00142602	0	
0.000285344	-0.00142325	0	
0.000166328	-0.00143592	0	
0.000177956	-0.00143879	0	
0.00018923	-0.00144102	0	
0.000200254	-0.0014426	0	
0.000211128	-0.00144354	0	
0.000221946	-0.00144383	0	
0.000232797	-0.00144349	0	
0.000243769	-0.00144252	0	
0.000254938	-0.00144092	0	
0.000266366	-0.0014387	0	
0.000278099	-0.00143588	0	
0.000173877	-0.00144701	0	
0.000183976	-0.00144996	0	
0.000193724	-0.00145224	0	
0.000203231	-0.00145386	0	
0.000212593	-0.00145484	0	
0.000221904	-0.00145516	0	
0.000231257	-0.00145482	0	
0.000240743	-0.00145383	0	
0.000250446	-0.0014522	0	
0.000260427	-0.00144993	0	
0.000270714	-0.00144705	0	
0.00018162	-0.00145654	0	
0.00019014	-0.00145956	0	
0.000198325	-0.0014619	0	
0.000206281	-0.00146358	0	
0.0002141	-0.0014646	0	
0.00022187	-0.00146496	0	
0.000229683	-0.00146466	0	
0.000237641	-0.00146367	0	
0.000245842	-0.00146201	0	
0.000254359	-0.0014597	0	
0.0002632	-0.00145676	0	
0.000189551	-0.00146446	0	
0.000196443	-0.00146754	0	
0.000203031	-0.00146995	0	
0.000209411	-0.00147169	0	
0.000215664	-0.00147278	0	
0.000221865	-0.00147321	0	
0.000228099	-0.00147298	0	
0.000234473	-0.00147204	0	
0.000241119	-0.00147038	0	
0.000248153	-0.00146802	0	
0.000255574	-0.00146503	0	
0.000197656	-0.0014707	0	
0.000202875	-0.00147385	0	
0.000207837	-0.00147631	0	
0.000212625	-0.00147812	0	
0.000217302	-0.00147929	0	
0.000221923	-0.00147983	0	
0.000226552	-0.00147973	0	
0.000231277	-0.00147893	0	
0.000236278	-0.00147734	0	
0.000241781	-0.00147496	0	
0.000247846	-0.00147191	0	
0.00020591	-0.00147521	0	
0.000209415	-0.00147841	0	
0.000212732	-0.00148092	0	
0.000215923	-0.00148279	0	
0.000219027	-0.00148405	0	
0.00022208	-0.00148472	0	
0.000225114	-0.00148481	0	
0.000228176	-0.00148428	0	
0.00023136	-0.001483	0	
0.000235177	-0.00148065	0	
0.000240037	-0.00147762	0	
0.000214273	-0.00147794	0	
0.000216034	-0.00148118	0	
0.000217695	-0.00148372	0	
0.000219289	-0.00148563	0	
0.000220835	-0.00148696	0	
0.000222349	-0.00148775	0	
0.000223839	-0.00148803	0	
0.000225309	-0.00148783	0	
0.000226775	-0.00148717	0	
0.000228221	-0.0014858	0	
0.000231873	-0.00148226	0	
0.000222694	-0.00147885	0	
0.000222694	-0.0014821	0	
0.000222694	-0.00148466	0	
0.000222694	-0.00148658	0	
0.000222694	-0.00148794	0	
0.000222694	-0.00148877	0	
0.000222694	-0.00148914	0	
0.000222694	-0.00148911	0	
0.000222694	-0.00148888	0	
0.000222694	-0.00148908	0	
0.000222694	-0.001491	0	
0.000231116	-0.00147794	0	
0.000229355	-0.00148118	0	
0.000227694	-0.00148372	0	
0.0002261	-0.00148563	0	
0.000224554	-0.00148696	0	
0.00022304	-0.00148775	0	
0.00022155	-0.00148803	0	
0.00022008	-0.00148783	0	
0.000218614	-0.00148717	0	
0.000217168	-0.0014858	0	
0.000213516	-0.00148226	0	
0.000239479	-0.00147521	0	
0.000235974	-0.00147841	0	
0.000232657	-0.00148092	0	
0.000229466	-0.00148279	0	
0.000226362	-0.00148405	0	
0.000223309	-0.00148472	0	
0.000220275	-0.00148481	0	
0.000217213	-0.00148428	0	
0.000214029	-0.001483	0	
0.000210212	-0.00148065	0	
0.000205352	-0.00147762	0	
0.000247733	-0.0014707	0	
0.000242514	-0.00147385	0	
0.000237552	-0.00147631	0	
0.000232764	-0.00147812	0	
0.000228087	-0.00147929	0	
0.000223466	-0.00147983	0	
0.000218837	-0.00147973	0	
0.000214112	-0.00147893	0	
0.000209111	-0.00147734	0	
0.000203608	-0.00147496	0	
0.000197543	-0.00147191	0	
0.000255838	-0.00146446	0	
0.000248945	-0.00146754	0	
0.000242358	-0.00146995	0	
0.000235978	-0.00147169	0	
0.000229725	-0.00147278	0	
0.000223524	-0.00147321	0	
0.00021729	-0.00147298	0	
0.000210916	-0.00147204	0	
0.00020427	-0.00147038	0	
0.000197236	-0.00146802	0	
0.000189815	-0.00146503	0	
0.000263769	-0.00145654	0	
0.000255249	-0.00145956	0	
0.000247064	-0.0014619	0	
0.000239108	-0.00146358	0	
0.000231289	-0.0014646	0	
0.000223519	-0.00146496	0	
0.000215706	-0.00146466	0	
0.000207748	-0.00146367	0	
0.000199547	-0.00146201	0	
0.00019103	-0.0014597	0	
0.000182189	-0.00145676	0	
0.000271512	-0.00144701	0	
0.000261413	-0.00144996	0	
0.000251665	-0.00145224	0	
0.000242158	-0.00145386	0	
0.000232796	-0.00145484	0	
0.000223485	-0.00145516	0	
0.000214132	-0.00145482	0	
0.000204646	-0.00145383	0	
0.000194943	-0.0014522	0	
0.000184962	-0.00144993	0	
0.000174675	-0.00144705	0	
0.000279061	-0.00143592	0	
0.000267433	-0.00143879	0	
0.000256159	-0.00144102	0	
0.000245135	-0.0014426	0	
0.000234261	-0.00144354	0	
0.000223443	-0.00144383	0	
0.000212592	-0.00144349	0	
0.00020162	-0.00144252	0	
0.000190451	-0.00144092	0	
0.000179022	-0.0014387	0	
0.00016729	-0.00143588	0	
0.000286418	-0.00142333	0	
0.000273306	-0.00142613	0	
0.000260547	-0.0014283	0	
0.000248042	-0.00142984	0	
0.000235692	-0.00143075	0	
0.000223405	-0.00143104	0	
0.000211093	-0.0014307	0	
0.000198672	-0.00142975	0	
0.000186066	-0.00142819	0	
0.00017321	-0.00142602	0	
0.000160045	-0.00142325	0	
0.000293587	-0.00140928	0	
0.000279033	-0.00141201	0	
0.000264831	-0.00141412	0	
0.000250882	-0.00141563	0	
0.000237093	-0.00141652	0	
0.000223374	-0.0014168	0	
0.000209637	-0.00141647	0	
0.0001958	-0.00141555	0	
0.000181786	-0.00141403	0	
0.000167525	-0.00141191	0	
0.000152949	-0.0014092	0	
0.00030057	-0.00139382	0	
0.000284616	-0.00139647	0	
0.000269009	-0.00139854	0	
0.000253657	-0.0014	0	
0.000238467	-0.00140087	0	
0.000223351	-0.00140115	0	
0.000208224	-0.00140084	0	
0.000193003	-0.00139994	0	
0.00017761	-0.00139846	0	
0.00016197	-0.00139639	0	
0.000146011	-0.00139375	0	
0.000307373	-0.00137697	0	
0.000290057	-0.00137956	0	
0.000273084	-0.00138157	0	
0.000256365	-0.001383	0	
0.000239812	-0.00138385	0	
0.000223335	-0.00138413	0	
0.000206852	-0.00138383	0	
0.000190279	-0.00138296	0	
0.000173537	-0.00138151	0	
0.000156548	-0.0013795	0	
0.000139234	-0.00137692	0	
0.000313997	-0.00135879	0	
0.000295356	-0.00136131	0	
0.000277056	-0.00136327	0	
0.000259008	-0.00136466	0	
0.000241126	-0.0013655	0	
0.000223325	-0.00136577	0	
0.000205519	-0.00136548	0	
0.000187627	-0.00136463	0	
0.000169567	-0.00136323	0	
0.000151259	-0.00136127	0	
0.000132623	-0.00135875	0	
0.000320446	-0.0013393	0	
0.000300516	-0.00134175	0	
0.000280923	-0.00134366	0	
0.000261583	-0.00134502	0	
0.00024241	-0.00134583	0	
0.000223318	-0.0013461	0	
0.000204225	-0.00134582	0	
0.000185046	-0.001345	0	
0.0001657	-0.00134363	0	
0.000146105	-0.00134172	0	
0.000126181	-0.00133927	0	
0.000326721	-0.00131854	0	
0.000305537	-0.00132092	0	
0.000284688	-0.00132278	0	
0.000264091	-0.00132411	0	
0.000243662	-0.0013249	0	
0.000223315	-0.00132516	0	
0.000202967	-0.00132489	0	
0.000182534	-0.00132409	0	
0.000161935	-0.00132276	0	
0.000141087	-0.00132091	0	
0.000119908	-0.00131852	0	
0.000332824	-0.00129654	0	
0.000310419	-0.00129886	0	
0.000288349	-0.00130067	0	
0.000266531	-0.00130195	0	
0.00024488	-0.00130273	0	
0.000223313	-0.00130298	0	
0.000201745	-0.00130272	0	
0.000180093	-0.00130195	0	
0.000158274	-0.00130066	0	
0.000136206	-0.00129885	0	
0.000113806	-0.00129653	0	
0.000338753	-0.00127334	0	
0.000315163	-0.0012756	0	
0.000291908	-0.00127735	0	
0.000268903	-0.0012786	0	
0.000246065	-0.00127935	0	
0.000223312	-0.0012796	0	