# vtk DataFile Version 4.1
vtk output
ASCII
DATASET UNSTRUCTURED_GRID

POINTS	1111	float
0	0	0	
0	1	0	
0	2	0	
0	3	0	
0	4	0	
0	5	0	
0	6	0	
0	7	0	
0	8	0	
0	9	0	
0	10	0	
1	0	0	
1	1	0	
1	2	0	
1	3	0	
1	4	0	
1	5	0	
1	6	0	
1	7	0	
1	8	0	
1	9	0	
1	10	0	
2	0	0	
2	1	0	
2	2	0	
2	3	0	
2	4	0	
2	5	0	
2	6	0	
2	7	0	
2	8	0	
2	9	0	
2	10	0	
3	0	0	
3	1	0	
3	2	0	
3	3	0	
3	4	0	
3	5	0	
3	6	0	
3	7	0	
3	8	0	
3	9	0	
3	10	0	
4	0	0	
4	1	0	
4	2	0	
4	3	0	
4	4	0	
4	5	0	
4	6	0	
4	7	0	
4	8	0	
4	9	0	
4	10	0	
5	0	0	
5	1	0	
5	2	0	
5	3	0	
5	4	0	
5	5	0	
5	6	0	
5	7	0	
5	8	0	
5	9	0	
5	10	0	
6	0	0	
6	1	0	
6	2	0	
6	3	0	
6	4	0	
6	5	0	
6	6	0	
6	7	0	
6	8	0	
6	9	0	
6	10	0	
7	0	0	
7	1	0	
7	2	0	
7	3	0	
7	4	0	
7	5	0	
7	6	0	
7	7	0	
7	8	0	
7	9	0	
7	10	0	
8	0	0	
8	1	0	
8	2	0	
8	3	0	
8	4	0	
8	5	0	
8	6	0	
8	7	0	
8	8	0	
8	9	0	
8	10	0	
9	0	0	
9	1	0	
9	2	0	
9	3	0	
9	4	0	
9	5	0	
9	6	0	
9	7	0	
9	8	0	
9	9	0	
9	10	0	
10	0	0	
10	1	0	
10	2	0	
10	3	0	
10	4	0	
10	5	0	
10	6	0	
10	7	0	
10	8	0	
10	9	0	
10	10	0	
11	0	0	
11	1	0	
11	2	0	
11	3	0	
11	4	0	
11	5	0	
11	6	0	
11	7	0	
11	8	0	
11	9	0	
11	10	0	
12	0	0	
12	1	0	
12	2	0	
12	3	0	
12	4	0	
12	5	0	
12	6	0	
12	7	0	
12	8	0	
12	9	0	
12	10	0	
13	0	0	
13	1	0	
13	2	0	
13	3	0	
13	4	0	
13	5	0	
13	6	0	
13	7	0	
13	8	0	
13	9	0	
13	10	0	
14	0	0	
14	1	0	
14	2	0	
14	3	0	
14	4	0	
14	5	0	
14	6	0	
14	7	0	
14	8	0	
14	9	0	
14	10	0	
15	0	0	
15	1	0	
15	2	0	
15	3	0	
15	4	0	
15	5	0	
15	6	0	
15	7	0	
15	8	0	
15	9	0	
15	10	0	
16	0	0	
16	1	0	
16	2	0	
16	3	0	
16	4	0	
16	5	0	
16	6	0	
16	7	0	
16	8	0	
16	9	0	
16	10	0	
17	0	0	
17	1	0	
17	2	0	
17	3	0	
17	4	0	
17	5	0	
17	6	0	
17	7	0	
17	8	0	
17	9	0	
17	10	0	
18	0	0	
18	1	0	
18	2	0	
18	3	0	
18	4	0	
18	5	0	
18	6	0	
18	7	0	
18	8	0	
18	9	0	
18	10	0	
19	0	0	
19	1	0	
19	2	0	
19	3	0	
19	4	0	
19	5	0	
19	6	0	
19	7	0	
19	8	0	
19	9	0	
19	10	0	
20	0	0	
20	1	0	
20	2	0	
20	3	0	
20	4	0	
20	5	0	
20	6	0	
20	7	0	
20	8	0	
20	9	0	
20	10	0	
21	0	0	
21	1	0	
21	2	0	
21	3	0	
21	4	0	
21	5	0	
21	6	0	
21	7	0	
21	8	0	
21	9	0	
21	10	0	
22	0	0	
22	1	0	
22	2	0	
22	3	0	
22	4	0	
22	5	0	
22	6	0	
22	7	0	
22	8	0	
22	9	0	
22	10	0	
23	0	0	
23	1	0	
23	2	0	
23	3	0	
23	4	0	
23	5	0	
23	6	0	
23	7	0	
23	8	0	
23	9	0	
23	10	0	
24	0	0	
24	1	0	
24	2	0	
24	3	0	
24	4	0	
24	5	0	
24	6	0	
24	7	0	
24	8	0	
24	9	0	
24	10	0	
25	0	0	
25	1	0	
25	2	0	
25	3	0	
25	4	0	
25	5	0	
25	6	0	
25	7	0	
25	8	0	
25	9	0	
25	10	0	
26	0	0	
26	1	0	
26	2	0	
26	3	0	
26	4	0	
26	5	0	
26	6	0	
26	7	0	
26	8	0	
26	9	0	
26	10	0	
27	0	0	
27	1	0	
27	2	0	
27	3	0	
27	4	0	
27	5	0	
27	6	0	
27	7	0	
27	8	0	
27	9	0	
27	10	0	
28	0	0	
28	1	0	
28	2	0	
28	3	0	
28	4	0	
28	5	0	
28	6	0	
28	7	0	
28	8	0	
28	9	0	
28	10	0	
29	0	0	
29	1	0	
29	2	0	
29	3	0	
29	4	0	
29	5	0	
29	6	0	
29	7	0	
29	8	0	
29	9	0	
29	10	0	
30	0	0	
30	1	0	
30	2	0	
30	3	0	
30	4	0	
30	5	0	
30	6	0	
30	7	0	
30	8	0	
30	9	0	
30	10	0	
31	0	0	
31	1	0	
31	2	0	
31	3	0	
31	4	0	
31	5	0	
31	6	0	
31	7	0	
31	8	0	
31	9	0	
31	10	0	
32	0	0	
32	1	0	
32	2	0	
32	3	0	
32	4	0	
32	5	0	
32	6	0	
32	7	0	
32	8	0	
32	9	0	
32	10	0	
33	0	0	
33	1	0	
33	2	0	
33	3	0	
33	4	0	
33	5	0	
33	6	0	
33	7	0	
33	8	0	
33	9	0	
33	10	0	
34	0	0	
34	1	0	
34	2	0	
34	3	0	
34	4	0	
34	5	0	
34	6	0	
34	7	0	
34	8	0	
34	9	0	
34	10	0	
35	0	0	
35	1	0	
35	2	0	
35	3	0	
35	4	0	
35	5	0	
35	6	0	
35	7	0	
35	8	0	
35	9	0	
35	10	0	
36	0	0	
36	1	0	
36	2	0	
36	3	0	
36	4	0	
36	5	0	
36	6	0	
36	7	0	
36	8	0	
36	9	0	
36	10	0	
37	0	0	
37	1	0	
37	2	0	
37	3	0	
37	4	0	
37	5	0	
37	6	0	
37	7	0	
37	8	0	
37	9	0	
37	10	0	
38	0	0	
38	1	0	
38	2	0	
38	3	0	
38	4	0	
38	5	0	
38	6	0	
38	7	0	
38	8	0	
38	9	0	
38	10	0	
39	0	0	
39	1	0	
39	2	0	
39	3	0	
39	4	0	
39	5	0	
39	6	0	
39	7	0	
39	8	0	
39	9	0	
39	10	0	
40	0	0	
40	1	0	
40	2	0	
40	3	0	
40	4	0	
40	5	0	
40	6	0	
40	7	0	
40	8	0	
40	9	0	
40	10	0	
41	0	0	
41	1	0	
41	2	0	
41	3	0	
41	4	0	
41	5	0	
41	6	0	
41	7	0	
41	8	0	
41	9	0	
41	10	0	
42	0	0	
42	1	0	
42	2	0	
42	3	0	
42	4	0	
42	5	0	
42	6	0	
42	7	0	
42	8	0	
42	9	0	
42	10	0	
43	0	0	
43	1	0	
43	2	0	
43	3	0	
43	4	0	
43	5	0	
43	6	0	
43	7	0	
43	8	0	
43	9	0	
43	10	0	
44	0	0	
44	1	0	
44	2	0	
44	3	0	
44	4	0	
44	5	0	
44	6	0	
44	7	0	
44	8	0	
44	9	0	
44	10	0	
45	0	0	
45	1	0	
45	2	0	
45	3	0	
45	4	0	
45	5	0	
45	6	0	
45	7	0	
45	8	0	
45	9	0	
45	10	0	
46	0	0	
46	1	0	
46	2	0	
46	3	0	
46	4	0	
46	5	0	
46	6	0	
46	7	0	
46	8	0	
46	9	0	
46	10	0	
47	0	0	
47	1	0	
47	2	0	
47	3	0	
47	4	0	
47	5	0	
47	6	0	
47	7	0	
47	8	0	
47	9	0	
47	10	0	
48	0	0	
48	1	0	
48	2	0	
48	3	0	
48	4	0	
48	5	0	
48	6	0	
48	7	0	
48	8	0	
48	9	0	
48	10	0	
49	0	0	
49	1	0	
49	2	0	
49	3	0	
49	4	0	
49	5	0	
49	6	0	
49	7	0	
49	8	0	
49	9	0	
49	10	0	
50	0	0	
50	1	0	
50	2	0	
50	3	0	
50	4	0	
50	5	0	
50	6	0	
50	7	0	
50	8	0	
50	9	0	
50	10	0	
51	0	0	
51	1	0	
51	2	0	
51	3	0	
51	4	0	
51	5	0	
51	6	0	
51	7	0	
51	8	0	
51	9	0	
51	10	0	
52	0	0	
52	1	0	
52	2	0	
52	3	0	
52	4	0	
52	5	0	
52	6	0	
52	7	0	
52	8	0	
52	9	0	
52	10	0	
53	0	0	
53	1	0	
53	2	0	
53	3	0	
53	4	0	
53	5	0	
53	6	0	
53	7	0	
53	8	0	
53	9	0	
53	10	0	
54	0	0	
54	1	0	
54	2	0	
54	3	0	
54	4	0	
54	5	0	
54	6	0	
54	7	0	
54	8	0	
54	9	0	
54	10	0	
55	0	0	
55	1	0	
55	2	0	
55	3	0	
55	4	0	
55	5	0	
55	6	0	
55	7	0	
55	8	0	
55	9	0	
55	10	0	
56	0	0	
56	1	0	
56	2	0	
56	3	0	
56	4	0	
56	5	0	
56	6	0	
56	7	0	
56	8	0	
56	9	0	
56	10	0	
57	0	0	
57	1	0	
57	2	0	
57	3	0	
57	4	0	
57	5	0	
57	6	0	
57	7	0	
57	8	0	
57	9	0	
57	10	0	
58	0	0	
58	1	0	
58	2	0	
58	3	0	
58	4	0	
58	5	0	
58	6	0	
58	7	0	
58	8	0	
58	9	0	
58	10	0	
59	0	0	
59	1	0	
59	2	0	
59	3	0	
59	4	0	
59	5	0	
59	6	0	
59	7	0	
59	8	0	
59	9	0	
59	10	0	
60	0	0	
60	1	0	
60	2	0	
60	3	0	
60	4	0	
60	5	0	
60	6	0	
60	7	0	
60	8	0	
60	9	0	
60	10	0	
61	0	0	
61	1	0	
61	2	0	
61	3	0	
61	4	0	
61	5	0	
61	6	0	
61	7	0	
61	8	0	
61	9	0	
61	10	0	
62	0	0	
62	1	0	
62	2	0	
62	3	0	
62	4	0	
62	5	0	
62	6	0	
62	7	0	
62	8	0	
62	9	0	
62	10	0	
63	0	0	
63	1	0	
63	2	0	
63	3	0	
63	4	0	
63	5	0	
63	6	0	
63	7	0	
63	8	0	
63	9	0	
63	10	0	
64	0	0	
64	1	0	
64	2	0	
64	3	0	
64	4	0	
64	5	0	
64	6	0	
64	7	0	
64	8	0	
64	9	0	
64	10	0	
65	0	0	
65	1	0	
65	2	0	
65	3	0	
65	4	0	
65	5	0	
65	6	0	
65	7	0	
65	8	0	
65	9	0	
65	10	0	
66	0	0	
66	1	0	
66	2	0	
66	3	0	
66	4	0	
66	5	0	
66	6	0	
66	7	0	
66	8	0	
66	9	0	
66	10	0	
67	0	0	
67	1	0	
67	2	0	
67	3	0	
67	4	0	
67	5	0	
67	6	0	
67	7	0	
67	8	0	
67	9	0	
67	10	0	
68	0	0	
68	1	0	
68	2	0	
68	3	0	
68	4	0	
68	5	0	
68	6	0	
68	7	0	
68	8	0	
68	9	0	
68	10	0	
69	0	0	
69	1	0	
69	2	0	
69	3	0	
69	4	0	
69	5	0	
69	6	0	
69	7	0	
69	8	0	
69	9	0	
69	10	0	
70	0	0	
70	1	0	
70	2	0	
70	3	0	
70	4	0	
70	5	0	
70	6	0	
70	7	0	
70	8	0	
70	9	0	
70	10	0	
71	0	0	
71	1	0	
71	2	0	
71	3	0	
71	4	0	
71	5	0	
71	6	0	
71	7	0	
71	8	0	
71	9	0	
71	10	0	
72	0	0	
72	1	0	
72	2	0	
72	3	0	
72	4	0	
72	5	0	
72	6	0	
72	7	0	
72	8	0	
72	9	0	
72	10	0	
73	0	0	
73	1	0	
73	2	0	
73	3	0	
73	4	0	
73	5	0	
73	6	0	
73	7	0	
73	8	0	
73	9	0	
73	10	0	
74	0	0	
74	1	0	
74	2	0	
74	3	0	
74	4	0	
74	5	0	
74	6	0	
74	7	0	
74	8	0	
74	9	0	
74	10	0	
75	0	0	
75	1	0	
75	2	0	
75	3	0	
75	4	0	
75	5	0	
75	6	0	
75	7	0	
75	8	0	
75	9	0	
75	10	0	
76	0	0	
76	1	0	
76	2	0	
76	3	0	
76	4	0	
76	5	0	
76	6	0	
76	7	0	
76	8	0	
76	9	0	
76	10	0	
77	0	0	
77	1	0	
77	2	0	
77	3	0	
77	4	0	
77	5	0	
77	6	0	
77	7	0	
77	8	0	
77	9	0	
77	10	0	
78	0	0	
78	1	0	
78	2	0	
78	3	0	
78	4	0	
78	5	0	
78	6	0	
78	7	0	
78	8	0	
78	9	0	
78	10	0	
79	0	0	
79	1	0	
79	2	0	
79	3	0	
79	4	0	
79	5	0	
79	6	0	
79	7	0	
79	8	0	
79	9	0	
79	10	0	
80	0	0	
80	1	0	
80	2	0	
80	3	0	
80	4	0	
80	5	0	
80	6	0	
80	7	0	
80	8	0	
80	9	0	
80	10	0	
81	0	0	
81	1	0	
81	2	0	
81	3	0	
81	4	0	
81	5	0	
81	6	0	
81	7	0	
81	8	0	
81	9	0	
81	10	0	
82	0	0	
82	1	0	
82	2	0	
82	3	0	
82	4	0	
82	5	0	
82	6	0	
82	7	0	
82	8	0	
82	9	0	
82	10	0	
83	0	0	
83	1	0	
83	2	0	
83	3	0	
83	4	0	
83	5	0	
83	6	0	
83	7	0	
83	8	0	
83	9	0	
83	10	0	
84	0	0	
84	1	0	
84	2	0	
84	3	0	
84	4	0	
84	5	0	
84	6	0	
84	7	0	
84	8	0	
84	9	0	
84	10	0	
85	0	0	
85	1	0	
85	2	0	
85	3	0	
85	4	0	
85	5	0	
85	6	0	
85	7	0	
85	8	0	
85	9	0	
85	10	0	
86	0	0	
86	1	0	
86	2	0	
86	3	0	
86	4	0	
86	5	0	
86	6	0	
86	7	0	
86	8	0	
86	9	0	
86	10	0	
87	0	0	
87	1	0	
87	2	0	
87	3	0	
87	4	0	
87	5	0	
87	6	0	
87	7	0	
87	8	0	
87	9	0	
87	10	0	
88	0	0	
88	1	0	
88	2	0	
88	3	0	
88	4	0	
88	5	0	
88	6	0	
88	7	0	
88	8	0	
88	9	0	
88	10	0	
89	0	0	
89	1	0	
89	2	0	
89	3	0	
89	4	0	
89	5	0	
89	6	0	
89	7	0	
89	8	0	
89	9	0	
89	10	0	
90	0	0	
90	1	0	
90	2	0	
90	3	0	
90	4	0	
90	5	0	
90	6	0	
90	7	0	
90	8	0	
90	9	0	
90	10	0	
91	0	0	
91	1	0	
91	2	0	
91	3	0	
91	4	0	
91	5	0	
91	6	0	
91	7	0	
91	8	0	
91	9	0	
91	10	0	
92	0	0	
92	1	0	
92	2	0	
92	3	0	
92	4	0	
92	5	0	
92	6	0	
92	7	0	
92	8	0	
92	9	0	
92	10	0	
93	0	0	
93	1	0	
93	2	0	
93	3	0	
93	4	0	
93	5	0	
93	6	0	
93	7	0	
93	8	0	
93	9	0	
93	10	0	
94	0	0	
94	1	0	
94	2	0	
94	3	0	
94	4	0	
94	5	0	
94	6	0	
94	7	0	
94	8	0	
94	9	0	
94	10	0	
95	0	0	
95	1	0	
95	2	0	
95	3	0	
95	4	0	
95	5	0	
95	6	0	
95	7	0	
95	8	0	
95	9	0	
95	10	0	
96	0	0	
96	1	0	
96	2	0	
96	3	0	
96	4	0	
96	5	0	
96	6	0	
96	7	0	
96	8	0	
96	9	0	
96	10	0	
97	0	0	
97	1	0	
97	2	0	
97	3	0	
97	4	0	
97	5	0	
97	6	0	
97	7	0	
97	8	0	
97	9	0	
97	10	0	
98	0	0	
98	1	0	
98	2	0	
98	3	0	
98	4	0	
98	5	0	
98	6	0	
98	7	0	
98	8	0	
98	9	0	
98	10	0	
99	0	0	
99	1	0	
99	2	0	
99	3	0	
99	4	0	
99	5	0	
99	6	0	
99	7	0	
99	8	0	
99	9	0	
99	10	0	
100	0	0	
100	1	0	
100	2	0	
100	3	0	
100	4	0	
100	5	0	
100	6	0	
100	7	0	
100	8	0	
100	9	0	
100	10	0	

CELLS 1000	5000
4	0	11	12	1	
4	1	12	13	2	
4	2	13	14	3	
4	3	14	15	4	
4	4	15	16	5	
4	5	16	17	6	
4	6	17	18	7	
4	7	18	19	8	
4	8	19	20	9	
4	9	20	21	10	
4	11	22	23	12	
4	12	23	24	13	
4	13	24	25	14	
4	14	25	26	15	
4	15	26	27	16	
4	16	27	28	17	
4	17	28	29	18	
4	18	29	30	19	
4	19	30	31	20	
4	20	31	32	21	
4	22	33	34	23	
4	23	34	35	24	
4	24	35	36	25	
4	25	36	37	26	
4	26	37	38	27	
4	27	38	39	28	
4	28	39	40	29	
4	29	40	41	30	
4	30	41	42	31	
4	31	42	43	32	
4	33	44	45	34	
4	34	45	46	35	
4	35	46	47	36	
4	36	47	48	37	
4	37	48	49	38	
4	38	49	50	39	
4	39	50	51	40	
4	40	51	52	41	
4	41	52	53	42	
4	42	53	54	43	
4	44	55	56	45	
4	45	56	57	46	
4	46	57	58	47	
4	47	58	59	48	
4	48	59	60	49	
4	49	60	61	50	
4	50	61	62	51	
4	51	62	63	52	
4	52	63	64	53	
4	53	64	65	54	
4	55	66	67	56	
4	56	67	68	57	
4	57	68	69	58	
4	58	69	70	59	
4	59	70	71	60	
4	60	71	72	61	
4	61	72	73	62	
4	62	73	74	63	
4	63	74	75	64	
4	64	75	76	65	
4	66	77	78	67	
4	67	78	79	68	
4	68	79	80	69	
4	69	80	81	70	
4	70	81	82	71	
4	71	82	83	72	
4	72	83	84	73	
4	73	84	85	74	
[...]
POINT_DATA	1111
VECTORS u float
-3.49693e-027	-4.12698e-015	0	
3.58562e-005	-4.94952e-006	0	
6.79933e-005	-7.82014e-006	0	
9.92368e-005	-9.59814e-006	0	
0.000130091	-1.07776e-005	0	
0.000160758	-1.15633e-005	0	
0.000191357	-1.20565e-005	0	
0.000221973	-1.23255e-005	0	
0.000252668	-1.24331e-005	0	
0.000283475	-1.24492e-005	0	
0.000314366	-1.2445e-005	0	
2.02403e-006	-3.96103e-005	0	
3.65215e-005	-3.96539e-005	0	
6.85671e-005	-4.03173e-005	0	
9.9683e-005	-4.11791e-005	0	
0.00013042	-4.19252e-005	0	
0.000160984	-4.24972e-005	0	
0.000191496	-4.28995e-005	0	
0.00022204	-4.31545e-005	0	
0.000252684	-4.32913e-005	0	
0.000283466	-4.3343e-005	0	
0.00031437	-4.33521e-005	0	
3.59484e-006	-7.27209e-005	0	
3.64547e-005	-7.3086e-005	0	
6.86029e-005	-7.30861e-005	0	
9.98161e-005	-7.32712e-005	0	
0.000130565	-7.35695e-005	0	
0.0001611	-7.38658e-005	0	
0.000191564	-7.41043e-005	0	
0.000222059	-7.4265e-005	0	
0.000252658	-7.43464e-005	0	
0.000283413	-7.43602e-005	0	
0.000314355	-7.4342e-005	0	
4.80198e-006	-0.000104916	0	
3.68018e-005	-0.000105206	0	
6.85591e-005	-0.000105277	0	
9.97813e-005	-0.000105275	0	
0.00013056	-0.000105328	0	
0.000161094	-0.000105417	0	
0.000191533	-0.0001055	0	
0.000221988	-0.000105549	0	
0.000252546	-0.00010555	0	
0.000283277	-0.000105504	0	
0.000314254	-0.000105435	0	
5.77254e-006	-0.000136565	0	
3.73089e-005	-0.000136868	0	
6.87017e-005	-0.000136994	0	
9.97658e-005	-0.000137009	0	
0.000130501	-0.000136989	0	
0.000161008	-0.000136971	0	
0.000191413	-0.000136949	0	
0.000221824	-0.000136906	0	
0.000252335	-0.000136831	0	
0.000283033	-0.000136723	0	
0.000314015	-0.000136592	0	
6.66905e-006	-0.000167937	0	
3.79023e-005	-0.000168253	0	
6.89927e-005	-0.000168434	0	
9.985e-005	-0.000168494	0	
0.000130464	-0.000168482	0	
0.000160895	-0.00016843	0	
0.000191234	-0.000168353	0	
0.000221579	-0.000168249	0	
0.000252025	-0.000168115	0	
0.000282668	-0.000167948	0	
0.000313611	-0.000167751	0	
7.57021e-006	-0.000199098	0	
3.85663e-005	-0.00019944	0	
6.93972e-005	-0.000199666	0	
0.000100034	-0.000199776	0	
0.000130482	-0.000199793	0	
0.000160786	-0.000199745	0	
0.00019102	-0.000199649	0	
0.000221269	-0.00019951	0	
0.000251623	-0.000199331	0	
0.000282177	-0.000199112	0	
0.000313033	-0.00019885	0	
8.52387e-006	-0.000230071	0	
3.93036e-005	-0.000230446	0	
6.98948e-005	-0.000230713	0	
0.000100306	-0.000230868	0	
0.000130559	-0.000230921	0	
0.000160698	-0.000230891	0	
0.000190788	-0.000230793	0	
0.000220904	-0.000230635	0	
0.000251132	-0.000230423	0	
0.000281561	-0.000230157	0	
0.000312285	-0.000229832	0	
9.55892e-006	-0.000260851	0	
4.01213e-005	-0.000261265	0	
7.04759e-005	-0.000261572	0	
0.000100654	-0.000261767	0	
0.00013069	-0.000261854	0	
0.000160633	-0.000261846	0	
0.000190544	-0.000261753	0	
0.000220492	-0.000261585	0	
0.000250558	-0.000261346	0	
0.000280824	-0.000261037	0	
0.000311375	-0.000260653	0	
1.06937e-005	-0.000291423	0	
4.10262e-005	-0.00029188	0	
7.11363e-005	-0.000292227	0	
0.000101068	-0.000292458	0	
0.000130868	-0.000292577	0	
0.000160588	-0.000292589	0	
0.000190288	-0.000292503	0	
0.000220035	-0.000292326	0	
0.000249903	-0.000292063	0	
0.000279969	-0.000291713	0	
0.000310311	-0.000291273	0	
1.19401e-005	-0.000321767	0	
4.20237e-005	-0.000322269	0	
7.18743e-005	-0.000322655	0	
0.000101545	-0.000322921	0	
0.000131088	-0.000323066	0	
0.000160559	-0.000323096	0	
0.000190018	-0.000323016	0	
0.000219531	-0.00032283	0	
0.000249168	-0.000322543	0	
0.000279001	-0.000322154	0	
0.000309102	-0.00032166	0	
1.33054e-005	-0.000351857	0	
4.31176e-005	-0.000352407	0	
7.26897e-005	-0.000352832	0	
0.000102079	-0.000353129	0	
0.000131344	-0.000353299	0	
0.000160541	-0.000353343	0	
0.000189731	-0.000353266	0	
0.00021898	-0.000353071	0	
0.000248355	-0.000352759	0	
0.000277923	-0.000352331	0	
0.000307753	-0.000351785	0	
1.47944e-005	-0.000381667	0	
4.43107e-005	-0.000382266	0	
7.35822e-005	-0.00038273	0	
0.000102669	-0.000383058	0	
0.000131632	-0.00038325	0	
0.00016053	-0.000383306	0	
0.000189425	-0.000383229	0	
0.000218381	-0.000383022	0	
0.000247464	-0.000382686	0	
0.000276738	-0.000382219	0	
0.00030627	-0.000381622	0	
1.64099e-005	-0.000411171	0	
4.56048e-005	-0.000411819	0	
7.4552e-005	-0.000412323	0	
0.000103313	-0.00041268	0	
0.00013195	-0.000412892	0	
0.000160524	-0.000412958	0	
0.000189097	-0.00041288	0	
0.000217733	-0.00041266	0	
0.000246495	-0.000412297	0	
0.000275447	-0.000411793	0	
0.000304655	-0.000411144	0	
1.81536e-005	-0.000440343	0	
4.70011e-005	-0.00044104	0	
7.55991e-005	-0.000441583	0	
0.00010401	-0.000441969	0	
0.000132297	-0.000442199	0	
0.000160522	-0.000442274	0	
0.000188746	-0.000442193	0	
0.000217034	-0.000441958	0	
0.000245448	-0.00044157	0	
0.000274052	-0.000441026	0	
0.000302909	-0.000440328	0	
2.00262e-005	-0.000469154	0	
4.85002e-005	-0.000469902	0	
7.67237e-005	-0.000470483	0	
0.00010476	-0.000470898	0	
0.000132671	-0.000471146	0	
0.000160521	-0.000471228	0	
0.000188371	-0.000471143	0	
0.000216284	-0.000470893	0	
0.000244324	-0.000470477	0	
0.000272553	-0.000469896	0	
0.000301033	-0.000469148	0	
2.20282e-005	-0.00049758	0	
5.01024e-005	-0.000498377	0	
7.79257e-005	-0.000498997	0	
0.000105561	-0.00049944	0	
0.000133072	-0.000499706	0	
0.000160521	-0.000499794	0	
0.00018797	-0.000499705	0	
0.000215483	-0.000499439	0	
0.000243122	-0.000498996	0	
0.00027095	-0.000498376	0	
0.000299029	-0.000497579	0	
2.41598e-005	-0.000525592	0	
5.1808e-005	-0.000526439	0	
7.92051e-005	-0.000527098	0	
0.000106414	-0.000527569	0	
0.000133499	-0.000527852	0	
0.000160521	-0.000527946	0	
0.000187544	-0.000527852	0	
0.00021463	-0.00052757	0	
0.000241843	-0.0005271	0	
0.000269244	-0.000526441	0	
0.000296896	-0.000525595	0	
2.64209e-005	-0.000553166	0	
5.36171e-005	-0.000554063	0	
8.05621e-005	-0.000554761	0	
0.000107319	-0.000555259	0	
0.000133951	-0.000555559	0	
0.000160521	-0.000555659	0	
0.000187092	-0.00055556	0	
0.000213726	-0.000555261	0	
0.000240486	-0.000554764	0	
0.000267435	-0.000554067	0	
0.000294634	-0.000553171	0	
2.88116e-005	-0.000580274	0	
5.55295e-005	-0.000581221	0	
8.19964e-005	-0.000581957	0	
0.000108275	-0.000582484	0	
0.00013443	-0.0005828	0	
0.000160522	-0.000582906	0	
0.000186614	-0.000582801	0	
0.00021277	-0.000582487	0	
0.000239052	-0.000581962	0	
0.000265522	-0.000581227	0	
0.000292243	-0.000580281	0	
3.13317e-005	-0.000606891	0	
5.75454e-005	-0.000607888	0	
8.35082e-005	-0.000608663	0	
0.000109283	-0.000609217	0	
0.000134934	-0.00060955	0	
0.000160522	-0.000609661	0	
0.000186111	-0.000609552	0	
0.000211763	-0.000609221	0	
0.000237541	-0.000608669	0	
0.000263507	-0.000607895	0	
0.000289724	-0.000606901	0	
3.39811e-005	-0.00063299	0	
5.96645e-005	-0.000634037	0	
8.50973e-005	-0.000634851	0	
0.000110343	-0.000635433	0	
0.000135463	-0.000635782	0	
0.000160522	-0.000635899	0	
0.000185582	-0.000635784	0	
0.000210705	-0.000635438	0	
0.000235953	-0.000634858	0	
0.00026139	-0.000634047	0	
0.000287077	-0.000633003	0	
3.67596e-005	-0.000658546	0	
6.18867e-005	-0.000659643	0	
8.67637e-005	-0.000660495	0	
0.000111453	-0.000661105	0	
0.000136019	-0.000661471	0	
0.000160523	-0.000661594	0	
0.000185027	-0.000661474	0	
0.000209595	-0.000661111	0	
0.000234288	-0.000660505	0	
0.000259169	-0.000659656	0	
0.000284301	-0.000658563	0	
3.96671e-005	-0.000683533	0	
6.4212e-005	-0.000684679	0	
8.85072e-005	-0.00068557	0	
0.000112616	-0.000686207	0	
0.0001366	-0.00068659	0	
0.000160523	-0.000686719	0	
0.000184447	-0.000686594	0	
0.000208434	-0.000686215	0	
0.000232546	-0.000685583	0	
0.000256847	-0.000684696	0	
0.000281398	-0.000683555	0	
4.27035e-005	-0.000707924	0	
6.66402e-005	-0.000709119	0	
9.03277e-005	-0.000710049	0	
0.000113829	-0.000710714	0	
0.000137207	-0.000711114	0	
0.000160523	-0.000711248	0	
0.000183841	-0.000711119	0	
0.000207222	-0.000710725	0	
0.000230728	-0.000710066	0	
0.000254422	-0.000709142	0	
0.000278366	-0.000707953	0	
4.58683e-005	-0.000731693	0	
6.91708e-005	-0.000732938	0	
9.2225e-005	-0.000733907	0	
0.000115094	-0.000734599	0	
0.000137839	-0.000735015	0	
0.000160524	-0.000735156	0	
0.00018321	-0.000735022	0	
0.000205959	-0.000734613	0	
0.000228834	-0.000733928	0	
0.000251896	-0.000732968	0	
0.000275207	-0.000731731	0	
4.91614e-005	-0.000754815	0	
7.18038e-005	-0.000756109	0	
9.41989e-005	-0.000757116	0	
0.000116409	-0.000757836	0	
0.000138497	-0.000758269	0	
0.000160525	-0.000758417	0	
0.000182554	-0.000758278	0	
0.000204646	-0.000757854	0	
0.000226864	-0.000757144	0	
0.000249268	-0.000756147	0	
0.000271921	-0.000754863	0	
5.25822e-005	-0.000777263	0	
7.45386e-005	-0.000778607	0	
9.62489e-005	-0.000779652	0	
0.000117776	-0.000780399	0	
0.000139181	-0.000780849	0	
0.000160526	-0.000781003	0	
0.000181873	-0.000780861	0	
0.000203284	-0.000780422	0	
0.000224818	-0.000779687	0	
0.00024654	-0.000778655	0	
0.000268509	-0.000777325	0	
5.61303e-005	-0.000799011	0	
7.73747e-005	-0.000800404	0	
9.83748e-005	-0.000801487	0	
0.000119193	-0.000802262	0	
0.00013989	-0.000802729	0	
0.000160528	-0.000802889	0	
0.000181168	-0.000802743	0	
0.000201871	-0.000802291	0	
0.000222699	-0.000801531	0	
0.000243712	-0.000800464	0	
0.000264972	-0.000799089	0	
5.98047e-005	-0.000820034	0	
8.03115e-005	-0.000821475	0	
0.000100576	-0.000822596	0	
0.00012066	-0.000823398	0	
0.000140624	-0.000823882	0	
0.000160531	-0.000824049	0	
0.000180439	-0.0008239	0	
0.00020041	-0.000823434	0	
0.000220505	-0.000822651	0	
0.000240784	-0.00082155	0	
0.00026131	-0.00082013	0	
6.36046e-005	-0.000840305	0	
8.33481e-005	-0.000841794	0	
0.000102852	-0.000842952	0	
0.000122177	-0.000843781	0	
0.000141384	-0.000844283	0	
0.000160534	-0.000844457	0	
0.000179686	-0.000844305	0	
0.000198901	-0.000843827	0	
0.000218238	-0.000843021	0	
0.000237759	-0.000841887	0	
0.000257524	-0.000840423	0	
6.75289e-005	-0.000859798	0	
8.64835e-005	-0.000861335	0	
0.000105201	-0.00086253	0	
0.000123743	-0.000863386	0	
0.000142169	-0.000863904	0	
0.000160538	-0.000864086	0	
0.00017891	-0.000863932	0	
0.000197344	-0.000863442	0	
0.0002159	-0.000862614	0	
0.000234637	-0.000861448	0	
0.000253617	-0.000859941	0	
7.1576e-005	-0.000878488	0	
8.97165e-005	-0.000880072	0	
0.000107624	-0.000881304	0	
0.000125358	-0.000882186	0	
0.000142978	-0.000882721	0	
0.000160544	-0.000882911	0	
0.000178112	-0.000882755	0	
0.000195741	-0.000882253	0	
0.000213491	-0.000881405	0	
0.00023142	-0.000880208	0	
0.000249589	-0.00087866	0	
7.57442e-005	-0.000896349	0	
9.30455e-005	-0.000897979	0	
0.000110118	-0.000899247	0	
0.000127021	-0.000900155	0	
0.000143813	-0.000900708	0	
0.00016055	-0.000900905	0	
0.000177291	-0.000900748	0	
0.000194093	-0.000900236	0	
0.000211013	-0.000899368	0	
0.00022811	-0.000898141	0	
0.000245442	-0.000896554	0	
8.00313e-005	-0.000913355	0	
9.64688e-005	-0.000915031	0	
0.000112683	-0.000916334	0	
0.000128731	-0.000917268	0	
0.000144671	-0.000917838	0	
0.000160559	-0.000918043	0	
0.00017645	-0.000917885	0	
0.000192401	-0.000917364	0	
0.000208468	-0.000916477	0	
0.000224708	-0.000915223	0	
0.00024118	-0.000913597	0	
8.44348e-005	-0.000929483	0	
9.99841e-005	-0.000931202	0	
0.000115316	-0.00093254	0	
0.000130487	-0.0009335	0	
0.000145553	-0.000934086	0	
0.000160569	-0.000934299	0	
0.000175588	-0.000934141	0	
0.000190666	-0.000933611	0	
0.000205857	-0.000932708	0	
0.000221217	-0.000931427	0	
0.000236804	-0.000929765	0	
8.89515e-005	-0.000944706	0	
0.000103589	-0.000946468	0	
0.000118016	-0.000947839	0	
0.000132288	-0.000948824	0	
0.000146459	-0.000949426	0	
0.000160581	-0.000949649	0	
0.000174707	-0.000949491	0	
0.00018889	-0.000948954	0	
0.000203183	-0.000948034	0	
0.00021764	-0.000946728	0	
0.000232317	-0.000945032	0	
9.35778e-005	-0.000959002	0	
0.000107281	-0.000960805	0	
0.000120781	-0.000962209	0	
0.000134133	-0.000963217	0	
0.000147387	-0.000963836	0	
0.000160595	-0.000964067	0	
0.000173807	-0.00096391	0	
0.000187074	-0.000963366	0	
0.000200448	-0.000962432	0	
0.00021398	-0.000961103	0	
0.000227725	-0.000959375	0	
9.83098e-005	-0.000972346	0	
0.000111055	-0.00097419	0	
0.000123608	-0.000975624	0	
0.000136019	-0.000976656	0	
0.000148337	-0.00097729	0	
0.000160611	-0.000977529	0	
0.00017289	-0.000977374	0	
0.000185221	-0.000976824	0	
0.000197655	-0.000975877	0	
0.00021024	-0.000974527	0	
0.00022303	-0.000972768	0	
0.000103143	-0.000984717	0	
0.00011491	-0.000986598	0	
0.000126495	-0.000988062	0	
0.000137945	-0.000989116	0	
0.000149308	-0.000989765	0	
0.00016063	-0.000990013	0	
0.000171957	-0.00098986	0	
0.000183333	-0.000989305	0	
0.000194807	-0.000988346	0	
0.000206424	-0.000986977	0	
0.000218237	-0.00098519	0	
0.000108071	-0.000996093	0	
0.000118839	-0.000998009	0	
0.000129437	-0.000999501	0	
0.000139909	-0.00100058	0	
0.0001503	-0.00100124	0	
0.000160652	-0.0010015	0	
0.000171008	-0.00100134	0	
0.000181412	-0.00100079	0	
0.000191907	-0.000999817	0	
0.000202538	-0.00099843	0	
0.000213351	-0.000996618	0	
0.000113088	-0.00100645	0	
0.000122839	-0.0010084	0	
0.000132432	-0.00100992	0	
0.000141908	-0.00101101	0	
0.00015131	-0.00101169	0	
0.000160676	-0.00101196	0	
0.000170046	-0.00101181	0	
0.00017946	-0.00101125	0	
0.000188959	-0.00101027	0	
0.000198584	-0.00100886	0	
0.000208379	-0.00100703	0	
0.000118189	-0.00101578	0	
0.000126904	-0.00101776	0	
0.000135475	-0.0010193	0	
0.000143941	-0.00102041	0	
0.000152338	-0.0010211	0	
0.000160703	-0.00102137	0	
0.000169072	-0.00102123	0	
0.000177481	-0.00102066	0	
0.000185967	-0.00101968	0	
0.000194569	-0.00101826	0	
0.000203327	-0.00101641	0	
0.000123365	-0.00102405	0	
0.000131028	-0.00102606	0	
0.000138563	-0.00102762	0	
0.000146003	-0.00102875	0	
0.000153382	-0.00102945	0	
0.000160732	-0.00102973	0	
0.000168086	-0.00102959	0	
0.000175476	-0.00102902	0	
0.000182935	-0.00102803	0	
0.000190499	-0.0010266	0	
0.000198202	-0.00102473	0	
0.000128609	-0.00103125	0	
0.000135206	-0.00103329	0	
0.00014169	-0.00103487	0	
0.000148092	-0.00103601	0	
0.00015444	-0.00103672	0	
0.000160763	-0.00103701	0	
0.00016709	-0.00103687	0	
0.000173449	-0.0010363	0	
0.000179868	-0.0010353	0	
0.000186379	-0.00103387	0	
0.000193012	-0.00103198	0	
0.000133912	-0.00103737	0	
0.00013943	-0.00103943	0	
0.000144852	-0.00104103	0	
0.000150204	-0.00104218	0	
0.000155511	-0.0010429	0	
0.000160797	-0.0010432	0	
0.000166086	-0.00104306	0	
0.000171402	-0.00104249	0	
0.00017677	-0.00104149	0	
0.000182215	-0.00104004	0	
0.000187765	-0.00103814	0	
0.000139266	-0.0010424	0	
0.000143693	-0.00104447	0	
0.000148043	-0.00104608	0	
0.000152336	-0.00104725	0	
0.000156593	-0.00104798	0	
0.000160833	-0.00104827	0	
0.000165075	-0.00104814	0	
0.000169339	-0.00104757	0	
0.000173645	-0.00104657	0	
0.000178014	-0.00104511	0	
0.000182469	-0.0010432	0	
0.00014466	-0.00104632	0	
0.000147988	-0.0010484	0	
0.000151258	-0.00105003	0	
0.000154485	-0.0010512	0	
0.000157684	-0.00105194	0	
0.00016087	-0.00105224	0	
0.000164058	-0.0010521	0	
0.000167263	-0.00105154	0	
0.000170499	-0.00105053	0	
0.000173784	-0.00104907	0	
0.000177133	-0.00104714	0	
0.000150085	-0.00104913	0	
0.000152308	-0.00105122	0	
0.000154491	-0.00105285	0	
0.000156645	-0.00105403	0	
0.000158781	-0.00105477	0	
0.000160908	-0.00105507	0	
0.000163037	-0.00105494	0	
0.000165176	-0.00105437	0	
0.000167338	-0.00105336	0	
0.000169531	-0.0010519	0	
0.000171768	-0.00104997	0	
0.000155531	-0.00105081	0	
0.000156644	-0.00105291	0	
0.000157736	-0.00105455	0	
0.000158814	-0.00105573	0	
0.000159883	-0.00105647	0	
0.000160948	-0.00105678	0	
0.000162013	-0.00105665	0	
0.000163084	-0.00105608	0	
0.000164165	-0.00105507	0	
0.000165263	-0.0010536	0	
0.000166383	-0.00105167	0	
0.000160988	-0.00105137	0	
0.000160988	-0.00105348	0	
0.000160988	-0.00105511	0	
0.000160988	-0.0010563	0	
0.000160988	-0.00105704	0	
0.000160988	-0.00105735	0	
0.000160988	-0.00105722	0	
0.000160988	-0.00105665	0	
0.000160988	-0.00105564	0	
0.000160988	-0.00105417	0	
0.000160988	-0.00105224	0	
0.000166444	-0.00105081	0	
0.000165332	-0.00105291	0	
0.000164239	-0.00105455	0	
0.000163161	-0.00105573	0	
0.000162092	-0.00105647	0	
0.000161027	-0.00105678	0	
0.000159962	-0.00105665	0	
0.000158891	-0.00105608	0	
0.00015781	-0.00105507	0	
0.000156712	-0.0010536	0	
0.000155592	-0.00105167	0	
0.00017189	-0.00104913	0	
0.000169667	-0.00105122	0	
0.000167484	-0.00105285	0	
0.00016533	-0.00105403	0	
0.000163194	-0.00105477	0	
0.000161067	-0.00105507	0	
0.000158938	-0.00105494	0	
0.000156799	-0.00105437	0	
0.000154637	-0.00105336	0	
0.000152444	-0.0010519	0	
0.000150207	-0.00104997	0	
0.000177315	-0.00104632	0	
0.000173987	-0.0010484	0	
0.000170717	-0.00105003	0	
0.00016749	-0.0010512	0	
0.000164291	-0.00105194	0	
0.000161105	-0.00105224	0	
0.000157917	-0.0010521	0	
0.000154713	-0.00105154	0	
0.000151476	-0.00105053	0	
0.000148191	-0.00104907	0	
0.000144842	-0.00104714	0	
0.00018271	-0.0010424	0	
0.000178282	-0.00104447	0	
0.000173932	-0.00104608	0	
0.000169639	-0.00104725	0	
0.000165382	-0.00104798	0	
0.000161143	-0.00104827	0	
0.0001569	-0.00104814	0	
0.000152636	-0.00104757	0	
0.00014833	-0.00104657	0	
0.000143961	-0.00104511	0	
0.000139507	-0.0010432	0	
0.000188063	-0.00103737	0	
0.000182545	-0.00103943	0	
0.000177123	-0.00104103	0	
0.000171771	-0.00104218	0	
0.000166464	-0.0010429	0	
0.000161178	-0.0010432	0	
0.000155889	-0.00104306	0	
0.000150573	-0.00104249	0	
0.000145206	-0.00104149	0	
0.00013976	-0.00104004	0	
0.000134211	-0.00103814	0	
0.000193366	-0.00103125	0	
0.000186769	-0.00103329	0	
0.000180285	-0.00103487	0	
0.000173884	-0.00103601	0	
0.000167535	-0.00103672	0	
0.000161212	-0.00103701	0	
0.000154885	-0.00103687	0	
0.000148527	-0.0010363	0	
0.000142107	-0.0010353	0	
0.000135597	-0.00103387	0	
0.000128963	-0.00103198	0	
0.00019861	-0.00102405	0	
0.000190947	-0.00102606	0	
0.000183412	-0.00102762	0	
0.000175972	-0.00102875	0	
0.000168594	-0.00102945	0	
0.000161243	-0.00102973	0	
0.000153889	-0.00102959	0	
0.000146499	-0.00102902	0	
0.00013904	-0.00102803	0	
0.000131476	-0.0010266	0	
0.000123773	-0.00102473	0	
0.000203786	-0.00101578	0	
0.000195071	-0.00101776	0	
0.0001865	-0.0010193	0	
0.000178035	-0.00102041	0	
0.000169637	-0.0010211	0	
0.000161273	-0.00102137	0	
0.000152904	-0.00102123	0	
0.000144494	-0.00102066	0	
0.000136008	-0.00101968	0	
0.000127406	-0.00101826	0	
0.000118648	-0.00101641	0	
0.000208887	-0.00100645	0	
0.000199136	-0.0010084	0	
0.000189543	-0.00100992	0	
0.000180067	-0.00101101	0	
0.000170665	-0.00101169	0	
0.000161299	-0.00101196	0	
0.000151929	-0.00101181	0	
0.000142515	-0.00101125	0	
0.000133016	-0.00101027	0	
0.000123391	-0.00100886	0	
0.000113596	-0.00100703	0	
0.000213904	-0.000996093	0	
0.000203136	-0.000998009	0	
0.000192538	-0.000999501	0	
0.000182066	-0.00100058	0	
0.000171675	-0.00100124	0	
0.000161323	-0.0010015	0	
0.000150967	-0.00100134	0	
0.000140563	-0.00100079	0	
0.000130068	-0.000999817	0	
0.000119437	-0.00099843	0	
0.000108624	-0.000996618	0	
0.000218833	-0.000984717	0	
0.000207065	-0.000986598	0	
0.000195481	-0.000988062	0	
0.00018403	-0.000989116	0	
0.000172667	-0.000989765	0	
0.000161345	-0.000990013	0	
0.000150018	-0.00098986	0	
0.000138642	-0.000989305	0	
0.000127169	-0.000988346	0	
0.000115551	-0.000986977	0	
0.000103738	-0.00098519	0	
0.000223665	-0.000972346	0	
0.00021092	-0.00097419	0	
0.000198367	-0.000975624	0	
0.000185956	-0.000976656	0	
0.000173638	-0.00097729	0	
0.000161364	-0.000977529	0	
0.000149085	-0.000977374	0	
0.000136754	-0.000976824	0	
0.000124321	-0.000975877	0	
0.000111735	-0.000974527	0	
9.89456e-005	-0.000972768	0	
0.000228397	-0.000959002	0	
0.000214695	-0.000960805	0	
0.000201194	-0.000962209	0	
0.000187842	-0.000963217	0	
0.000174588	-0.000963836	0	
0.00016138	-0.000964067	0	
0.000148168	-0.00096391	0	
0.000134901	-0.000963366	0	
0.000121528	-0.000962432	0	
0.000107995	-0.000961103	0	
9.42504e-005	-0.000959375	0	
0.000233024	-0.000944706	0	
0.000218386	-0.000946468	0	
0.000203959	-0.000947839	0	
0.000189687	-0.000948824	0	
0.000175516	-0.000949426	0	
0.000161394	-0.000949649	0	
0.000147268	-0.000949491	0	
0.000133086	-0.000948954	0	
0.000118793	-0.000948034	0	
0.000104335	-0.000946728	0	
8.96577e-005	-0.000945032	0	
0.00023754	-0.000929483	0	
0.000221991	-0.000931202	0	
0.000206659	-0.00093254	0	
0.000191488	-0.0009335	0	
0.000176422	-0.000934086	0	
0.000161406	-0.000934299	0	