# vtk DataFile Version 4.1
vtk output
ASCII
DATASET UNSTRUCTURED_GRID

POINTS	12261	float
0	0	0	
0	1	0	
0	2	0	
0	3	0	
0	4	0	
0	5	0	
0	6	0	
0	7	0	
0	8	0	
0	9	0	
0	10	0	
0	11	0	
0	12	0	
0	13	0	
0	14	0	
0	15	0	
0	16	0	
0	17	0	
0	18	0	
0	19	0	
0	20	0	
0	21	0	
0	22	0	
0	23	0	
0	24	0	
0	25	0	
0	26	0	
0	27	0	
0	28	0	
0	29	0	
0	30	0	
0	31	0	
0	32	0	
0	33	0	
0	34	0	
0	35	0	
0	36	0	
0	37	0	
0	38	0	
0	39	0	
0	40	0	
0	41	0	
0	42	0	
0	43	0	
0	44	0	
0	45	0	
0	46	0	
0	47	0	
0	48	0	
0	49	0	
0	50	0	
1	0	0	
1	1	0	
1	2	0	
1	3	0	
1	4	0	
1	5	0	
1	6	0	
1	7	0	
1	8	0	
1	9	0	
1	10	0	
1	11	0	
1	12	0	
1	13	0	
1	14	0	
1	15	0	
1	16	0	
1	17	0	
1	18	0	
1	19	0	
1	20	0	
1	21	0	
1	22	0	
1	23	0	
1	24	0	
1	25	0	
1	26	0	
1	27	0	
1	28	0	
1	29	0	
1	30	0	
1	31	0	
1	32	0	
1	33	0	
1	34	0	
1	35	0	
1	36	0	
1	37	0	
1	38	0	
1	39	0	
1	40	0	
1	41	0	
1	42	0	
1	43	0	
1	44	0	
1	45	0	
1	46	0	
1	47	0	
1	48	0	
1	49	0	
1	50	0	
2	0	0	
2	1	0	
2	2	0	
2	3	0	
2	4	0	
2	5	0	
2	6	0	
2	7	0	
2	8	0	
2	9	0	
2	10	0	
2	11	0	
2	12	0	
2	13	0	
2	14	0	
2	15	0	
2	16	0	
2	17	0	
2	18	0	
2	19	0	
2	20	0	
2	21	0	
2	22	0	
2	23	0	
2	24	0	
2	25	0	
2	26	0	
2	27	0	
2	28	0	
2	29	0	
2	30	0	
2	31	0	
2	32	0	
2	33	0	
2	34	0	
2	35	0	
2	36	0	
2	37	0	
2	38	0	
2	39	0	
2	40	0	
2	41	0	
2	42	0	
2	43	0	
2	44	0	
2	45	0	
2	46	0	
2	47	0	
2	48	0	
2	49	0	
2	50	0	
3	0	0	
3	1	0	
3	2	0	
3	3	0	
3	4	0	
3	5	0	
3	6	0	
3	7	0	
3	8	0	
3	9	0	
3	10	0	
3	11	0	
3	12	0	
3	13	0	
3	14	0	
3	15	0	
3	16	0	
3	17	0	
3	18	0	
3	19	0	
3	20	0	
3	21	0	
3	22	0	
3	23	0	
3	24	0	
3	25	0	
3	26	0	
3	27	0	
3	28	0	
3	29	0	
3	30	0	
3	31	0	
3	32	0	
3	33	0	
3	34	0	
3	35	0	
3	36	0	
3	37	0	
3	38	0	
3	39	0	
3	40	0	
3	41	0	
3	42	0	
3	43	0	
3	44	0	
3	45	0	
3	46	0	
3	47	0	
3	48	0	
3	49	0	
3	50	0	
4	0	0	
4	1	0	
4	2	0	
4	3	0	
4	4	0	
4	5	0	
4	6	0	
4	7	0	
4	8	0	
4	9	0	
4	10	0	
4	11	0	
4	12	0	
4	13	0	
4	14	0	
4	15	0	
4	16	0	
4	17	0	
4	18	0	
4	19	0	
4	20	0	
4	21	0	
4	22	0	
4	23	0	
4	24	0	
4	25	0	
4	26	0	
4	27	0	
4	28	0	
4	29	0	
4	30	0	
4	31	0	
4	32	0	
4	33	0	
4	34	0	
4	35	0	
4	36	0	
4	37	0	
4	38	0	
4	39	0	
4	40	0	
4	41	0	
4	42	0	
4	43	0	
4	44	0	
4	45	0	
4	46	0	
4	47	0	
4	48	0	
4	49	0	
4	50	0	
5	0	0	
5	1	0	
5	2	0	
5	3	0	
5	4	0	
5	5	0	
5	6	0	
5	7	0	
5	8	0	
5	9	0	
5	10	0	
5	11	0	
5	12	0	
5	13	0	
5	14	0	
5	15	0	
5	16	0	
5	17	0	
5	18	0	
5	19	0	
5	20	0	
5	21	0	
5	22	0	
5	23	0	
5	24	0	
5	25	0	
5	26	0	
5	27	0	
5	28	0	
5	29	0	
5	30	0	
5	31	0	
5	32	0	
5	33	0	
5	34	0	
5	35	0	
5	36	0	
5	37	0	
5	38	0	
5	39	0	
5	40	0	
5	41	0	
5	42	0	
5	43	0	
5	44	0	
5	45	0	
5	46	0	
5	47	0	
5	48	0	
5	49	0	
5	50	0	
6	0	0	
6	1	0	
6	2	0	
6	3	0	
6	4	0	
6	5	0	
6	6	0	
6	7	0	
6	8	0	
6	9	0	
6	10	0	
6	11	0	
6	12	0	
6	13	0	
6	14	0	
6	15	0	
6	16	0	
6	17	0	
6	18	0	
6	19	0	
6	20	0	
6	21	0	
6	22	0	
6	23	0	
6	24	0	
6	25	0	
6	26	0	
6	27	0	
6	28	0	
6	29	0	
6	30	0	
6	31	0	
6	32	0	
6	33	0	
6	34	0	
6	35	0	
6	36	0	
6	37	0	
6	38	0	
6	39	0	
6	40	0	
6	41	0	
6	42	0	
6	43	0	
6	44	0	
6	45	0	
6	46	0	
6	47	0	
6	48	0	
6	49	0	
6	50	0	
7	0	0	
7	1	0	
7	2	0	
7	3	0	
7	4	0	
7	5	0	
7	6	0	
7	7	0	
7	8	0	
7	9	0	
7	10	0	
7	11	0	
7	12	0	
7	13	0	
7	14	0	
7	15	0	
7	16	0	
7	17	0	
7	18	0	
7	19	0	
7	20	0	
7	21	0	
7	22	0	
7	23	0	
7	24	0	
7	25	0	
7	26	0	
7	27	0	
7	28	0	
7	29	0	
7	30	0	
7	31	0	
7	32	0	
7	33	0	
7	34	0	
7	35	0	
7	36	0	
7	37	0	
7	38	0	
7	39	0	
7	40	0	
7	41	0	
7	42	0	
7	43	0	
7	44	0	
7	45	0	
7	46	0	
7	47	0	
7	48	0	
7	49	0	
7	50	0	
8	0	0	
8	1	0	
8	2	0	
8	3	0	
8	4	0	
8	5	0	
8	6	0	
8	7	0	
8	8	0	
8	9	0	
8	10	0	
8	11	0	
8	12	0	
8	13	0	
8	14	0	
8	15	0	
8	16	0	
8	17	0	
8	18	0	
8	19	0	
8	20	0	
8	21	0	
8	22	0	
8	23	0	
8	24	0	
8	25	0	
8	26	0	
8	27	0	
8	28	0	
8	29	0	
8	30	0	
8	31	0	
8	32	0	
8	33	0	
8	34	0	
8	35	0	
8	36	0	
8	37	0	
8	38	0	
8	39	0	
8	40	0	
8	41	0	
8	42	0	
8	43	0	
8	44	0	
8	45	0	
8	46	0	
8	47	0	
8	48	0	
8	49	0	
8	50	0	
9	0	0	
9	1	0	
9	2	0	
9	3	0	
9	4	0	
9	5	0	
9	6	0	
9	7	0	
9	8	0	
9	9	0	
9	10	0	
9	11	0	
9	12	0	
9	13	0	
9	14	0	
9	15	0	
9	16	0	
9	17	0	
9	18	0	
9	19	0	
9	20	0	
9	21	0	
9	22	0	
9	23	0	
9	24	0	
9	25	0	
9	26	0	
9	27	0	
9	28	0	
9	29	0	
9	30	0	
9	31	0	
9	32	0	
9	33	0	
9	34	0	
9	35	0	
9	36	0	
9	37	0	
9	38	0	
9	39	0	
9	40	0	
9	41	0	
9	42	0	
9	43	0	
9	44	0	
9	45	0	
9	46	0	
9	47	0	
9	48	0	
9	49	0	
9	50	0	
10	0	0	
10	1	0	
10	2	0	
10	3	0	
10	4	0	
10	5	0	
10	6	0	
10	7	0	
10	8	0	
10	9	0	
10	10	0	
10	11	0	
10	12	0	
10	13	0	
10	14	0	
10	15	0	
10	16	0	
10	17	0	
10	18	0	
10	19	0	
10	20	0	
10	21	0	
10	22	0	
10	23	0	
10	24	0	
10	25	0	
10	26	0	
10	27	0	
10	28	0	
10	29	0	
10	30	0	
10	31	0	
10	32	0	
10	33	0	
10	34	0	
10	35	0	
10	36	0	
10	37	0	
10	38	0	
10	39	0	
10	40	0	
10	41	0	
10	42	0	
10	43	0	
10	44	0	
10	45	0	
10	46	0	
10	47	0	
10	48	0	
10	49	0	
10	50	0	
11	0	0	
11	1	0	
11	2	0	
11	3	0	
11	4	0	
11	5	0	
11	6	0	
11	7	0	
11	8	0	
11	9	0	
11	10	0	
11	11	0	
11	12	0	
11	13	0	
11	14	0	
11	15	0	
11	16	0	
11	17	0	
11	18	0	
11	19	0	
11	20	0	
11	21	0	
11	22	0	
11	23	0	
11	24	0	
11	25	0	
11	26	0	
11	27	0	
11	28	0	
11	29	0	
11	30	0	
11	31	0	
11	32	0	
11	33	0	
11	34	0	
11	35	0	
11	36	0	
11	37	0	
11	38	0	
11	39	0	
11	40	0	
11	41	0	
11	42	0	
11	43	0	
11	44	0	
11	45	0	
11	46	0	
11	47	0	
11	48	0	
11	49	0	
11	50	0	
12	0	0	
12	1	0	
12	2	0	
12	3	0	
12	4	0	
12	5	0	
12	6	0	
12	7	0	
12	8	0	
12	9	0	
12	10	0	
12	11	0	
12	12	0	
12	13	0	
12	14	0	
12	15	0	
12	16	0	
12	17	0	
12	18	0	
12	19	0	
12	20	0	
12	21	0	
12	22	0	
12	23	0	
12	24	0	
12	25	0	
12	26	0	
12	27	0	
12	28	0	
12	29	0	
12	30	0	
12	31	0	
12	32	0	
12	33	0	
12	34	0	
12	35	0	
12	36	0	
12	37	0	
12	38	0	
12	39	0	
12	40	0	
12	41	0	
12	42	0	
12	43	0	
12	44	0	
12	45	0	
12	46	0	
12	47	0	
12	48	0	
12	49	0	
12	50	0	
13	0	0	
13	1	0	
13	2	0	
13	3	0	
13	4	0	
13	5	0	
13	6	0	
13	7	0	
13	8	0	
13	9	0	
13	10	0	
13	11	0	
13	12	0	
13	13	0	
13	14	0	
13	15	0	
13	16	0	
13	17	0	
13	18	0	
13	19	0	
13	20	0	
13	21	0	
13	22	0	
13	23	0	
13	24	0	
13	25	0	
13	26	0	
13	27	0	
13	28	0	
13	29	0	
13	30	0	
13	31	0	
13	32	0	
13	33	0	
13	34	0	
13	35	0	
13	36	0	
13	37	0	
13	38	0	
13	39	0	
13	40	0	
13	41	0	
13	42	0	
13	43	0	
13	44	0	
13	45	0	
13	46	0	
13	47	0	
13	48	0	
13	49	0	
13	50	0	
14	0	0	
14	1	0	
14	2	0	
14	3	0	
14	4	0	
14	5	0	
14	6	0	
14	7	0	
14	8	0	
14	9	0	
14	10	0	
14	11	0	
14	12	0	
14	13	0	
14	14	0	
14	15	0	
14	16	0	
14	17	0	
14	18	0	
14	19	0	
14	20	0	
14	21	0	
14	22	0	
14	23	0	
14	24	0	
14	25	0	
14	26	0	
14	27	0	
14	28	0	
14	29	0	
14	30	0	
14	31	0	
14	32	0	
14	33	0	
14	34	0	
14	35	0	
14	36	0	
14	37	0	
14	38	0	
14	39	0	
14	40	0	
14	41	0	
14	42	0	
14	43	0	
14	44	0	
14	45	0	
14	46	0	
14	47	0	
14	48	0	
14	49	0	
14	50	0	
15	0	0	
15	1	0	
15	2	0	
15	3	0	
15	4	0	
15	5	0	
15	6	0	
15	7	0	
15	8	0	
15	9	0	
15	10	0	
15	11	0	
15	12	0	
15	13	0	
15	14	0	
15	15	0	
15	16	0	
15	17	0	
15	18	0	
15	19	0	
15	20	0	
15	21	0	
15	22	0	
15	23	0	
15	24	0	
15	25	0	
15	26	0	
15	27	0	
15	28	0	
15	29	0	
15	30	0	
15	31	0	
15	32	0	
15	33	0	
15	34	0	
15	35	0	
15	36	0	
15	37	0	
15	38	0	
15	39	0	
15	40	0	
15	41	0	
15	42	0	
15	43	0	
15	44	0	
15	45	0	
15	46	0	
15	47	0	
15	48	0	
15	49	0	
15	50	0	
16	0	0	
16	1	0	
16	2	0	
16	3	0	
16	4	0	
16	5	0	
16	6	0	
16	7	0	
16	8	0	
16	9	0	
16	10	0	
16	11	0	
16	12	0	
16	13	0	
16	14	0	
16	15	0	
16	16	0	
16	17	0	
16	18	0	
16	19	0	
16	20	0	
16	21	0	
16	22	0	
16	23	0	
16	24	0	
16	25	0	
16	26	0	
16	27	0	
16	28	0	
16	29	0	
16	30	0	
16	31	0	
16	32	0	
16	33	0	
16	34	0	
16	35	0	
16	36	0	
16	37	0	
16	38	0	
16	39	0	
16	40	0	
16	41	0	
16	42	0	
16	43	0	
16	44	0	
16	45	0	
16	46	0	
16	47	0	
16	48	0	
16	49	0	
16	50	0	
17	0	0	
17	1	0	
17	2	0	
17	3	0	
17	4	0	
17	5	0	
17	6	0	
17	7	0	
17	8	0	
17	9	0	
17	10	0	
17	11	0	
17	12	0	
17	13	0	
17	14	0	
17	15	0	
17	16	0	
17	17	0	
17	18	0	
17	19	0	
17	20	0	
17	21	0	
17	22	0	
17	23	0	
17	24	0	
17	25	0	
17	26	0	
17	27	0	
17	28	0	
17	29	0	
17	30	0	
17	31	0	
17	32	0	
17	33	0	
17	34	0	
17	35	0	
17	36	0	
17	37	0	
17	38	0	
17	39	0	
17	40	0	
17	41	0	
17	42	0	
17	43	0	
17	44	0	
17	45	0	
17	46	0	
17	47	0	
17	48	0	
17	49	0	
17	50	0	
18	0	0	
18	1	0	
18	2	0	
18	3	0	
18	4	0	
18	5	0	
18	6	0	
18	7	0	
18	8	0	
18	9	0	
18	10	0	
18	11	0	
18	12	0	
18	13	0	
18	14	0	
18	15	0	
18	16	0	
18	17	0	
18	18	0	
18	19	0	
18	20	0	
18	21	0	
18	22	0	
18	23	0	
18	24	0	
18	25	0	
18	26	0	
18	27	0	
18	28	0	
18	29	0	
18	30	0	
18	31	0	
18	32	0	
18	33	0	
18	34	0	
18	35	0	
18	36	0	
18	37	0	
18	38	0	
18	39	0	
18	40	0	
18	41	0	
18	42	0	
18	43	0	
18	44	0	
18	45	0	
18	46	0	
18	47	0	
18	48	0	
18	49	0	
18	50	0	
19	0	0	
19	1	0	
19	2	0	
19	3	0	
19	4	0	
19	5	0	
19	6	0	
19	7	0	
19	8	0	
19	9	0	
19	10	0	
19	11	0	
19	12	0	
19	13	0	
19	14	0	
19	15	0	
19	16	0	
19	17	0	
19	18	0	
19	19	0	
19	20	0	
19	21	0	
19	22	0	
19	23	0	
19	24	0	
19	25	0	
19	26	0	
19	27	0	
19	28	0	
19	29	0	
19	30	0	
19	31	0	
19	32	0	
19	33	0	
19	34	0	
19	35	0	
19	36	0	
19	37	0	
19	38	0	
19	39	0	
19	40	0	
19	41	0	
19	42	0	
19	43	0	
19	44	0	
19	45	0	
19	46	0	
19	47	0	
19	48	0	
19	49	0	
19	50	0	
20	0	0	
20	1	0	
20	2	0	
20	3	0	
20	4	0	
20	5	0	
20	6	0	
20	7	0	
20	8	0	
20	9	0	
20	10	0	
20	11	0	
20	12	0	
20	13	0	
20	14	0	
20	15	0	
20	16	0	
20	17	0	
20	18	0	
20	19	0	
20	20	0	
20	21	0	
20	22	0	
20	23	0	
20	24	0	
20	25	0	
20	26	0	
20	27	0	
20	28	0	
20	29	0	
20	30	0	
20	31	0	
20	32	0	
20	33	0	
20	34	0	
20	35	0	
20	36	0	
20	37	0	
20	38	0	
20	39	0	
20	40	0	
20	41	0	
20	42	0	
20	43	0	
20	44	0	
20	45	0	
20	46	0	
20	47	0	
20	48	0	
20	49	0	
20	50	0	
21	0	0	
21	1	0	
21	2	0	
21	3	0	
21	4	0	
21	5	0	
21	6	0	
21	7	0	
21	8	0	
21	9	0	
21	10	0	
21	11	0	
21	12	0	
21	13	0	
21	14	0	
21	15	0	
21	16	0	
21	17	0	
21	18	0	
21	19	0	
21	20	0	
21	21	0	
21	22	0	
21	23	0	
21	24	0	
21	25	0	
21	26	0	
21	27	0	
21	28	0	
21	29	0	
21	30	0	
21	31	0	
21	32	0	
21	33	0	
21	34	0	
21	35	0	
21	36	0	
21	37	0	
21	38	0	
21	39	0	
21	40	0	
21	41	0	
21	42	0	
21	43	0	
21	44	0	
21	45	0	
21	46	0	
21	47	0	
21	48	0	
21	49	0	
21	50	0	
22	0	0	
22	1	0	
22	2	0	
22	3	0	
22	4	0	
22	5	0	
22	6	0	
22	7	0	
22	8	0	
22	9	0	
22	10	0	
22	11	0	
22	12	0	
22	13	0	
22	14	0	
22	15	0	
22	16	0	
22	17	0	
22	18	0	
22	19	0	
22	20	0	
22	21	0	
22	22	0	
22	23	0	
22	24	0	
22	25	0	
22	26	0	
22	27	0	
22	28	0	
22	29	0	
22	30	0	
22	31	0	
22	32	0	
22	33	0	
22	34	0	
22	35	0	
22	36	0	
22	37	0	
22	38	0	
22	39	0	
22	40	0	
22	41	0	
22	42	0	
22	43	0	
22	44	0	
22	45	0	
22	46	0	
22	47	0	
22	48	0	
22	49	0	
22	50	0	
23	0	0	
23	1	0	
23	2	0	
23	3	0	
23	4	0	
23	5	0	
23	6	0	
23	7	0	
23	8	0	
23	9	0	
23	10	0	
[...]
POINT_DATA	12261
VECTORS u0 float
0	0	0	
0	0	0	
0	0	0	
0	0	0	
0	0	0	
0	0	0	
0	0	0	
0	0	0	
0	0	0	
0	0	0	
0	0	0	
0	0	0	
0	0	0	
0	0	0	
0	0	0	
0	0	0	
0	0	0	
0	0	0	
0	0	0	
0	0	0	
0	0	0	
0	0	0	
0	0	0	
0	0	0	
0	0	0	
0	0	0	
0	0	0	
0	0	0	
0	0	0	
0	0	0	
0	0	0	
0	0	0	
0	0	0	
0	0	0	
0	0	0	
0	0	0	
0	0	0	
0	0	0	
0	0	0	
0	0	0	
0	0	0	
0	0	0	
0	0	0	
0	0	0	
0	0	0	
0	0	0	
0	0	0	
0	0	0	
0	0	0	
0	0	0	
0	0	0	
4.64684	3.99162	0	
2.69542	2.7813	0	
1.85119	2.11133	0	
1.37358	1.79963	0	
0.977574	1.58968	0	
0.568909	1.42942	0	
-0.0181238	1.3571	0	
-1.19304	1.51919	0	
-2.44336	2.05096	0	
-2.0597	2.6635	0	
-1.86038	3.1519	0	
-1.69147	3.48431	0	
-1.59435	3.75221	0	
-1.49871	4.00487	0	
-1.5064	4.25806	0	
-1.52248	4.51517	0	
-1.51246	4.76535	0	
-1.48022	5.00661	0	
-1.3628	5.21786	0	
-0.870202	5.30625	0	
-0.548129	5.29957	0	
-0.362996	5.2717	0	
-0.236349	5.2459	0	
-0.14253	5.23145	0	
-0.0661343	5.23126	0	
0.00307354	5.24562	0	
0.0742746	5.27261	0	
0.156232	5.30837	0	
0.257977	5.34757	0	
0.393131	5.38368	0	
0.585378	5.40584	0	
0.912654	5.39159	0	
1.40507	5.27048	0	
1.5104	5.02627	0	
1.52655	4.76031	0	
1.52144	4.49694	0	
1.4942	4.23767	0	
1.48088	3.99079	0	
1.57677	3.74952	0	
1.68033	3.49441	0	
1.86085	3.17226	0	
2.07471	2.68837	0	
2.47506	2.07424	0	
1.21463	1.53525	0	
0.0332897	1.36736	0	
-0.556296	1.43627	0	
-0.966034	1.59451	0	
-1.3627	1.80251	0	
-1.84096	2.11204	0	
-2.68588	2.77917	0	
-4.63786	3.98633	0	
7.83007	6.98288	0	
5.40118	5.79352	0	
3.90886	4.92274	0	
2.88895	4.36675	0	
2.05558	4.01464	0	
1.21693	3.80664	0	
0.11866	3.72803	0	
-1.72575	3.80725	0	
-3.58033	4.09598	0	
-4.08793	4.87375	0	
-3.44391	5.59812	0	
-3.16979	6.27999	0	
-2.98241	6.88383	0	
-2.81458	7.43483	0	
-2.73954	7.9416	0	
-2.7292	8.4203	0	
-2.6747	8.8698	0	
-2.57297	9.28615	0	
-2.3651	9.63888	0	
-1.72581	9.87746	0	
-1.09537	10.0127	0	
-0.721766	10.0854	0	
-0.467765	10.1182	0	
-0.28367	10.1406	0	
-0.137723	10.1662	0	
-0.00634994	10.1995	0	
0.130729	10.2385	0	
0.292734	10.275	0	
0.500163	10.2955	0	
0.780113	10.2799	0	
1.1768	10.196	0	
1.82327	10.023	0	
2.46009	9.7304	0	
2.64389	9.32659	0	
2.71149	8.87201	0	
2.73251	8.40174	0	
2.71716	7.9191	0	
2.77797	7.42109	0	
2.94525	6.88605	0	
3.1456	6.29891	0	
3.44327	5.62893	0	
4.12172	4.90875	0	
3.62772	4.12536	0	
1.7629	3.8314	0	
-0.0892744	3.74687	0	
-1.19173	3.8213	0	
-2.03248	4.02587	0	
-2.86708	4.37463	0	
-3.88815	4.92713	0	
-5.38218	5.79424	0	
-7.81434	6.98013	0	
10.5845	9.98671	0	
7.9263	8.92213	0	
5.9499	8.04657	0	
4.44284	7.41876	0	
3.17306	7.0234	0	
1.9225	6.82225	0	
0.429468	6.76968	0	
-1.68229	6.80859	0	
-3.8574	6.94417	0	
-5.58236	7.33774	0	
-4.83085	8.00989	0	
-4.53661	8.90798	0	
-4.29816	9.77567	0	
-4.05222	10.5586	0	
-3.8597	11.2797	0	
-3.77925	11.9341	0	
-3.65033	12.5489	0	
-3.46624	13.1189	0	
-3.18039	13.6039	0	
-2.54591	13.9748	0	
-1.66564	14.2551	0	
-1.10299	14.4687	0	
-0.714573	14.603	0	
-0.434345	14.6906	0	
-0.216803	14.7568	0	
-0.0223745	14.8095	0	
0.18256	14.8465	0	
0.429709	14.8565	0	
0.753124	14.8202	0	
1.18985	14.7042	0	
1.79544	14.4729	0	
2.70221	14.1429	0	
3.32909	13.71	0	
3.57769	13.1694	0	
3.70942	12.5589	0	
3.78626	11.9234	0	
3.82683	11.2672	0	
3.99795	10.5577	0	
4.24512	9.79255	0	
4.50533	8.93983	0	
4.83709	8.04948	0	
5.64277	7.37622	0	
3.9154	6.97769	0	
1.73498	6.83818	0	
-0.387869	6.79651	0	
-1.88577	6.84513	0	
-3.13885	7.04197	0	
-4.4103	7.4332	0	
-5.91906	8.05696	0	
-7.89814	8.92865	0	
-10.5614	9.98969	0	
13.0349	13.0994	0	
10.1634	12.1549	0	
7.84914	11.3513	0	
5.94503	10.7536	0	
4.27888	10.379	0	
2.66774	10.2085	0	
0.907189	10.1911	0	
-1.20464	10.2383	0	
-3.64462	10.2634	0	
-5.63121	10.3719	0	
-6.00785	11.0016	0	
-5.68995	11.7545	0	
-5.44783	12.7064	0	
-5.13329	13.61	0	
-4.82465	14.4465	0	
-4.64319	15.2196	0	
-4.42915	15.9443	0	
-4.17067	16.5913	0	
-3.79332	17.1748	0	
-3.20489	17.7135	0	
-2.27572	18.1599	0	
-1.50116	18.4805	0	
-0.974222	18.7207	0	
-0.593655	18.8848	0	
-0.299968	18.9957	0	
-0.0383501	19.0648	0	
0.239012	19.0885	0	
0.57699	19.0551	0	
1.02183	18.9406	0	
1.61964	18.7138	0	
2.45592	18.3681	0	
3.41558	17.8678	0	
3.98716	17.2705	0	
4.31313	16.6365	0	
4.5026	15.9562	0	
4.6482	15.2185	0	
4.77856	14.4502	0	
5.06328	13.63	0	
5.38585	12.7441	0	
5.66368	11.8035	0	
6.03794	11.0539	0	
5.69739	10.4183	0	
3.70458	10.3104	0	
1.26373	10.2804	0	
-0.85567	10.2272	0	
-2.62054	10.2394	0	
-4.2343	10.4051	0	
-5.90245	10.7752	0	
-7.80879	11.3688	0	
-10.1265	12.1685	0	
-13.0038	13.1094	0	
15.2073	16.3424	0	
12.1735	15.4963	0	
9.58909	14.7723	0	
7.35109	14.2337	0	
5.34098	13.9071	0	
3.42718	13.7805	0	
1.47376	13.7984	0	
-0.64771	13.8474	0	
-3.18103	13.8666	0	
-4.97736	14.1442	0	
-6.36181	14.6181	0	
-6.64222	15.0516	0	
-6.31696	15.8038	0	
-5.9774	16.7048	0	
-5.58847	17.5605	0	
-5.29266	18.3723	0	
-5.02242	19.1377	0	
-4.68893	19.8634	0	
-4.26016	20.5415	0	
-3.65162	21.157	0	
-2.82732	21.7112	0	
-1.91327	22.1661	0	
-1.2321	22.5059	0	
-0.753408	22.746	0	
-0.381053	22.9012	0	
-0.048214	22.9815	0	
0.305393	22.9842	0	
0.73593	22.8966	0	
1.29795	22.6957	0	
2.06823	22.3594	0	
3.05567	21.8746	0	
3.90551	21.2718	0	
4.48576	20.6064	0	
4.84817	19.8907	0	
5.0968	19.1458	0	
5.28661	18.3798	0	
5.52538	17.5825	0	
5.89477	16.7474	0	
6.25652	15.8621	0	
6.64494	15.1164	0	
6.42224	14.6748	0	
5.04574	14.1957	0	
3.24672	13.9151	0	
0.711335	13.893	0	
-1.41384	13.8404	0	
-3.37066	13.8179	0	
-5.287	13.9399	0	
-7.29932	14.2621	0	
-9.5399	14.7967	0	
-12.128	15.5171	0	
-15.1678	16.3595	0	
17.1556	19.6677	0	
13.9945	18.9007	0	
11.1798	18.2464	0	
8.65108	17.7686	0	
6.33949	17.4954	0	
4.16666	17.4187	0	
2.05095	17.4901	0	
-0.0884025	17.6402	0	
-2.31638	17.8127	0	
-4.29581	17.9971	0	
-5.89158	18.2277	0	
-7.03912	18.7282	0	
-6.9406	19.1155	0	
-6.48798	19.8351	0	
-6.10356	20.6476	0	
-5.72795	21.4377	0	
-5.4109	22.2218	0	
-5.03219	22.9825	0	
-4.56236	23.7077	0	
-3.94345	24.4077	0	
-3.20522	25.0351	0	
-2.30482	25.5704	0	
-1.4772	25.9951	0	
-0.901617	26.3094	0	
-0.452379	26.5055	0	
-0.0474123	26.5919	0	
0.382467	26.5685	0	
0.900912	26.421	0	
1.57399	26.1302	0	
2.5017	25.6993	0	
3.47359	25.1319	0	
4.22576	24.4643	0	
4.80245	23.7301	0	
5.19048	22.9853	0	
5.47153	22.2228	0	
5.70118	21.4531	0	
6.02113	20.6867	0	
6.39835	19.8958	0	
6.90618	19.1875	0	
7.08718	18.792	0	
5.95585	18.2851	0	
4.36642	18.051	0	
2.38665	17.8644	0	
0.156721	17.6893	0	
-1.98449	17.5361	0	
-4.10241	17.461	0	
-6.27736	17.5337	0	
-8.59111	17.8029	0	
-11.1225	18.277	0	
-13.941	18.9279	0	
-17.1075	19.6914	0	
18.9354	23.0408	0	
15.6701	22.3299	0	
12.6461	21.7282	0	
9.8505	21.2994	0	
7.26272	21.0724	0	
4.85505	21.0401	0	
2.5921	21.1609	0	
0.438883	21.3526	0	
-1.59443	21.5232	0	
-3.63035	21.7036	0	
-5.24243	21.9458	0	
-6.58361	22.1355	0	
-7.3261	22.678	0	
-6.67793	22.9961	0	
-6.32372	23.692	0	
-5.95762	24.4678	0	
-5.59067	25.2174	0	
-5.1989	25.9737	0	
-4.70892	26.7171	0	
-4.10345	27.4253	0	
-3.39785	28.1099	0	
-2.56829	28.7551	0	
-1.71337	29.2701	0	
-1.0279	29.6203	0	
-0.506603	29.8432	0	
-0.0335028	29.9317	0	
0.467271	29.8789	0	
1.06432	29.6799	0	
1.85429	29.334	0	
2.80712	28.8022	0	
3.69357	28.129	0	
4.39715	27.418	0	
4.94399	26.6942	0	
5.33786	25.9518	0	
5.62369	25.2127	0	
5.90245	24.4916	0	
6.22352	23.7444	0	
6.59876	23.067	0	
7.35089	22.7485	0	
6.63722	22.1965	0	
5.3082	22.0036	0	
3.70156	21.7594	0	
1.6669	21.5774	0	
-0.366419	21.4044	0	
-2.52029	21.2098	0	
-4.78445	21.0857	0	
-7.19367	21.1147	0	
-9.78339	21.3384	0	
-12.5816	21.7639	0	
-15.609	22.3625	0	
-18.879	23.0701	0	
20.6114	26.4445	0	
17.2448	25.7654	0	
14.0168	25.1956	0	
10.962	24.7965	0	
8.10643	24.5986	0	
5.47252	24.5983	0	
3.07391	24.7537	0	
0.90769	24.9898	0	
-1.03614	25.2317	0	
-2.81957	25.4572	0	
-4.5242	25.6532	0	
-5.81103	25.8035	0	
-6.96199	25.8016	0	
-6.73651	26.4445	0	
-6.27251	26.7947	0	
-5.95424	27.4612	0	
-5.58068	28.1583	0	
-5.17751	28.8581	0	
-4.70694	29.5842	0	
-4.12823	30.3164	0	
-3.44995	31.0229	0	
-2.66586	31.6922	0	
-1.86682	32.2816	0	
-1.13082	32.7182	0	
-0.546142	32.9564	0	
-0.00624355	33.0311	0	
0.562165	32.9611	0	
1.22305	32.72	0	
2.0574	32.2688	0	
2.93901	31.6565	0	
3.75938	30.9654	0	
4.41453	30.2481	0	
4.91693	29.5214	0	
5.28012	28.8174	0	
5.57407	28.1524	0	
5.8675	27.4938	0	
6.16504	26.8586	0	
6.70427	26.5231	0	
6.99781	25.8645	0	
5.86546	25.8635	0	
4.58947	25.7111	0	
2.89056	25.5138	0	
1.11041	25.2866	0	
-0.831836	25.0426	0	
-2.9977	24.804	0	
-5.39674	24.646	0	
-8.03165	24.6436	0	
-10.8888	24.8388	0	
-13.9458	25.2352	0	
-17.1768	25.8022	0	
-20.5473	26.4784	0	
22.25	29.8904	0	
18.7631	29.2193	0	
15.3237	28.658	0	
12.0052	28.2612	0	
8.87314	28.0643	0	
6.00279	28.0738	0	
3.46564	28.2498	0	
1.28436	28.5148	0	
-0.579424	28.7843	0	
-2.17166	29.0262	0	
-3.60451	29.2959	0	
-4.93047	29.4938	0	
-5.83101	29.5909	0	
-6.20253	29.8325	0	
-6.05915	29.9971	0	
-5.70824	30.4359	0	
-5.35764	31.0275	0	
-4.98645	31.6659	0	
-4.55126	32.343	0	
-4.01762	33.0424	0	
-3.37466	33.7481	0	
-2.64672	34.4212	0	
-1.89323	35.015	0	
-1.18185	35.4863	0	
-0.549038	35.7963	0	
0.0317803	35.9016	0	
0.637837	35.7696	0	
1.33765	35.4303	0	
2.13018	34.929	0	
2.94285	34.3102	0	
3.68111	33.6248	0	
4.27691	32.9252	0	
4.71717	32.2511	0	
5.03758	31.615	0	
5.30435	31.0256	0	
5.59328	30.479	0	
5.97025	30.0703	0	
6.20411	29.9032	0	
5.86845	29.6515	0	
4.9842	29.5516	0	
3.66819	29.3523	0	
2.24258	29.0814	0	
0.655227	28.8382	0	
-1.20586	28.567	0	
-3.386	28.3002	0	
-5.92295	28.1223	0	
-8.79372	28.1107	0	
-11.9268	28.3055	0	
-15.2472	28.7001	0	
-18.689	29.259	0	
-22.1789	29.9276	0	
23.9101	33.4208	0	
20.2657	32.7378	0	
16.6019	32.1607	0	
13.0089	31.7306	0	
9.57666	31.4904	0	
6.43633	31.4677	0	
3.74295	31.6334	0	
1.56468	31.8885	0	
-0.19396	32.1431	0	
-1.65035	32.355	0	
-2.85334	32.5579	0	
-3.89963	32.8698	0	
-4.74381	33.1065	0	
-5.26668	33.1472	0	
-5.5079	33.3565	0	
-5.16437	33.38	0	
-4.91202	33.8249	0	
-4.62855	34.3915	0	
-4.24679	35.0141	0	
-3.76874	35.675	0	
-3.16903	36.3531	0	
-2.51032	37.005	0	
-1.80898	37.5932	0	
-1.14488	38.0523	0	
-0.516184	38.3256	0	
0.0728629	38.3938	0	
0.683104	38.2708	0	
1.36401	37.9466	0	
2.08412	37.4463	0	
2.81441	36.8333	0	
3.45341	36.1793	0	
3.98092	35.524	0	
4.35177	34.907	0	
4.61892	34.3414	0	
4.81271	33.8313	0	
5.03586	33.4297	0	
5.46791	33.4282	0	
5.27894	33.2076	0	
4.78073	33.162	0	
3.951	32.9235	0	
2.9157	32.6104	0	
1.72122	32.4068	0	
0.27083	32.1942	0	
-1.48419	31.9387	0	
-3.66108	31.6826	0	
-6.35349	31.5158	0	
-9.49364	31.5373	0	
-12.9265	31.7759	0	
-16.5207	32.2043	0	
-20.1863	32.7795	0	
-23.833	33.4603	0	
25.631	37.1045	0	
21.7833	36.3987	0	
17.8861	35.7867	0	
14.014	35.2875	0	
10.2535	34.9458	0	
6.77748	34.8142	0	
3.89359	34.8821	0	
1.74757	35.0542	0	
0.149411	35.2439	0	
-1.16244	35.402	0	
-2.24542	35.5356	0	
-3.07774	35.6925	0	
-3.75089	36.027	0	
-4.22321	36.2979	0	
-4.87657	36.0341	0	
-4.40813	36.2567	0	
-4.27702	36.5556	0	
-4.11197	37.0284	0	
-3.79421	37.5793	0	
-3.38728	38.1771	0	
-2.85354	38.8062	0	
-2.26267	39.4131	0	
-1.6375	39.9527	0	
-1.02691	40.3761	0	
-0.447275	40.6426	0	
0.113509	40.7109	0	
0.687855	40.5661	0	
1.29901	40.2331	0	
1.93604	39.7619	0	
2.55627	39.2007	0	
3.09562	38.6027	0	
3.53425	38.0116	0	
3.82644	37.4734	0	
4.03926	36.9904	0	
4.14483	36.5764	0	
4.30186	36.3124	0	
4.85358	36.0954	0	
4.23806	36.3488	0	
3.7856	36.0747	0	
3.12707	35.7388	0	
2.30664	35.5817	0	
1.2328	35.4483	0	
-0.0721576	35.2904	0	
-1.66548	35.1013	0	
-3.81096	34.9297	0	
-6.69269	34.8611	0	
-10.1679	34.9921	0	
-13.9284	35.3331	0	
-17.8012	35.8311	0	
-21.6996	36.4416	0	
-25.549	37.1456	0	
27.4197	41.0199	0	
23.3291	40.2937	0	
19.201	39.6459	0	
15.0652	39.0676	0	
10.9464	38.5955	0	
7.05898	38.2818	0	
3.99083	37.9737	0	
1.87372	37.8374	0	
0.484297	37.9744	0	
-0.692588	38.1363	0	
-1.6547	38.2256	0	
-2.41876	38.3036	0	
-2.94412	38.4194	0	
-3.37052	38.7468	0	
-3.5596	39.1097	0	
-3.41802	39.3737	0	
-3.48943	39.249	0	
-3.43358	39.5244	0	
-3.21077	39.9827	0	
-2.88693	40.5161	0	
-2.44101	41.0971	0	
-1.92224	41.6653	0	
-1.38468	42.1682	0	
-0.845318	42.5615	0	
-0.334812	42.8021	0	
0.147361	42.8569	0	
0.634724	42.7132	0	
1.15388	42.3966	0	
1.68695	41.9532	0	
2.18426	41.4348	0	
2.62097	40.887	0	
2.95506	40.3572	0	
3.16491	39.8938	0	
3.30468	39.5067	0	
3.36296	39.2878	0	
3.37863	39.4206	0	
3.55673	39.1474	0	
3.38591	38.7838	0	
2.97667	38.4559	0	
2.46635	38.3406	0	
1.71432	38.2633	0	
0.76186	38.1751	0	
-0.407316	38.0143	0	
-1.79114	37.8788	0	
-3.908	38.0167	0	
-6.97348	38.3267	0	
-10.8592	38.6409	0	
-14.9773	39.1128	0	
-19.1132	39.6904	0	
-23.2419	40.3372	0	
-27.3336	41.0621	0	
29.2471	45.2267	0	
24.8942	44.4948	0	
20.5451	43.8352	0	
16.1734	43.226	0	
11.6645	42.6874	0	
7.39643	42.1965	0	
4.20223	41.3799	0	
2.11527	40.7129	0	
0.803761	40.4556	0	
-0.191791	40.5328	0	
-1.08816	40.6465	0	
-1.77428	40.7041	0	
-2.26816	40.7477	0	
-2.60833	40.7858	0	
-3.10259	40.9417	0	
-2.8857	41.4367	0	
-2.63869	41.6269	0	
-2.61327	41.7377	0	
-2.52696	42.1855	0	
-2.29567	42.6872	0	
-1.94586	43.2245	0	
-1.51087	43.7642	0	
-1.06334	44.2401	0	
-0.619022	44.6068	0	
-0.207788	44.8175	0	
0.169787	44.8543	0	
0.544301	44.7238	0	
0.940679	44.4355	0	
1.34565	44.022	0	
1.71923	43.5387	0	
2.04705	43.0303	0	
2.27768	42.5538	0	
2.40835	42.1229	0	
2.45635	41.7376	0	
2.5725	41.6613	0	
2.86833	41.4611	0	
3.09478	40.9685	0	
2.62198	40.8101	0	
2.29854	40.7722	0	
1.81962	40.7302	0	
1.14586	40.6741	0	
0.258861	40.5625	0	
-0.727935	40.4878	0	
-2.03491	40.7491	0	
-4.12016	41.4201	0	
-7.31131	42.2396	0	
-11.5767	42.7319	0	
-16.0841	43.2708	0	
-20.4552	43.8797	0	
-24.8043	44.5386	0	
-29.1579	45.2695	0	
31.0638	49.7408	0	
26.4546	49.0212	0	
21.8939	48.3755	0	
17.3093	47.7859	0	
12.5764	47.2515	0	
7.93171	46.5466	0	
4.50041	45.1326	0	
2.4798	43.4104	0	
1.128	42.8145	0	
0.324223	42.7935	0	
-0.527253	42.8559	0	
-1.16221	42.9126	0	
-1.60098	42.9573	0	
-1.90523	43.0106	0	
-2.18518	43.0932	0	
-2.53555	43.1938	0	
-2.06458	43.6499	0	
-1.78694	43.8604	0	
-1.77163	44.1925	0	
-1.64035	44.6749	0	
-1.38781	45.1853	0	
-1.05033	45.6995	0	
-0.700135	46.1567	0	
-0.368409	46.5047	0	
-0.0804777	46.7035	0	
0.177728	46.7385	0	
0.424448	46.6125	0	
0.674793	46.3417	0	
0.936881	45.9552	0	
1.18452	45.5003	0	
1.39952	45.0269	0	
1.5395	44.58	0	
1.60475	44.1623	0	
1.66699	43.8758	0	
2.02721	43.6602	0	
2.52427	43.1974	0	
2.18086	43.0993	0	
1.91707	43.0194	0	
1.62826	42.9684	0	
1.20449	42.9264	0	
0.584106	42.8734	0	
-0.260891	42.8144	0	
-1.05441	42.8372	0	
-2.40261	43.4397	0	
-4.42127	45.1698	0	
-7.84781	46.5888	0	
-12.4886	47.2953	0	
-17.2193	47.8302	0	
-21.8026	48.4198	0	
-26.3628	49.065	0	
-30.9722	49.7839	0	
32.8246	54.5335	0	
27.9887	53.8379	0	
23.2338	53.2137	0	
18.4596	52.6496	0	
13.5566	52.1432	0	
8.62779	51.5248	0	
4.72645	50.1331	0	
3.14331	46.2784	0	
1.48075	44.8	0	
0.593692	44.6425	0	
0.019615	44.839	0	
-0.608358	44.956	0	
-0.970238	45.0089	0	
-1.22881	45.0583	0	
-1.3959	45.1396	0	
-1.55019	45.3634	0	
-1.47024	45.6084	0	
-1.12004	45.9562	0	
-0.969965	46.0973	0	
-0.917425	46.4863	0	
-0.78703	46.9701	0	
-0.560158	47.4669	0	
-0.320958	47.9179	0	
-0.112489	48.2616	0	
0.0452796	48.4625	0	
0.168963	48.503	0	
0.273476	48.3816	0	
0.373647	48.12	0	
0.487439	47.7492	0	
0.604818	47.3111	0	
0.707929	46.8602	0	
0.752114	46.4348	0	
0.811847	46.0942	0	
1.0633	45.9598	0	
1.43476	45.6084	0	
1.5345	45.3614	0	
1.39282	45.1361	0	
1.2386	45.0541	0	
0.993708	45.0064	0	
0.647405	44.9551	0	
0.038108	44.8377	0	
-0.529936	44.6453	0	
-1.41075	44.8084	0	
-3.07542	46.2996	0	
-4.65448	50.1688	0	
-8.54427	51.5672	0	
-13.4684	52.1867	0	
-18.3693	52.6934	0	
-23.1417	53.2577	0	
-27.8955	53.8816	0	
-32.7311	54.5766	0	
34.5023	59.5502	0	
29.4839	58.8839	0	
24.5639	58.2786	0	
19.6322	57.7288	0	
14.5809	57.2334	0	
9.46843	56.7332	0	
5.17559	55.6573	0	
3.89422	52.235	0	
1.99495	47.088	0	
0.919229	46.4686	0	
0.335786	46.4634	0	
-0.0979913	46.665	0	
-0.388456	46.873	0	
-0.569984	46.9542	0	
-0.715931	47.0083	0	
-0.74243	47.0748	0	
-0.750636	47.3069	0	
-0.701364	47.5766	0	
-0.15491	47.9661	0	
-0.126049	48.1162	0	
-0.158087	48.5729	0	
-0.0602402	49.0757	0	
0.054001	49.5316	0	
0.134926	49.8814	0	
0.160304	50.0849	0	
0.143652	50.1302	0	
0.101426	50.0197	0	
0.0532722	49.7703	0	
0.0225808	49.4063	0	
0.00893847	48.971	0	
-0.000274854	48.5114	0	
-0.0514805	48.0997	0	
0.0759447	47.9589	0	
0.653431	47.563	0	
0.709686	47.296	0	
0.724699	47.0603	0	
0.713471	46.9927	0	
0.577971	46.9376	0	
0.407749	46.8577	0	
0.133224	46.651	0	
-0.283911	46.4509	0	
-0.860166	46.46	0	
-1.94046	47.0859	0	
-3.88521	52.2554	0	
-5.11832	55.6914	0	
-9.38714	56.7746	0	
-14.4935	57.2763	0	
-19.5422	57.7721	0	
-24.4714	58.3219	0	
-29.3897	58.9271	0	
-34.4073	59.5928	0	
36.0868	64.7308	0	
30.935	64.0948	0	
25.8879	63.5042	0	
20.8355	62.9568	0	
15.6712	62.4497	0	
10.4696	61.9506	0	
6.66739	60.2022	0	
4.99515	57.4686	0	
2.95763	53.8149	0	
1.3528	48.5335	0	
0.777577	48.317	0	
0.376603	48.3055	0	
0.238536	48.5234	0	
0.0552161	48.7338	0	
-0.0345817	48.8113	0	
-0.0635193	48.8559	0	
-0.050417	48.8646	0	
-0.382395	48.9182	0	
0.197789	49.389	0	
0.608426	49.6554	0	
0.496157	50.0234	0	
0.433939	50.5492	0	
0.410859	51.0204	0	
0.365849	51.3805	0	
0.259739	51.5912	0	
0.103608	51.644	0	
-0.0825654	51.5445	0	
-0.27191	51.3044	0	
-0.433678	50.9419	0	
-0.572471	50.4909	0	
-0.694945	49.9933	0	
-0.710637	49.6332	0	
-0.259222	49.3559	0	
0.340793	48.8805	0	
0.0152004	48.83	0	
0.044769	48.8263	0	
0.0320477	48.7846	0	
-0.0480964	48.707	0	
-0.229619	48.499	0	
-0.346542	48.2816	0	
-0.735614	48.2971	0	
-1.30607	48.5165	0	
-2.99669	53.8173	0	
-5.03618	57.4859	0	
-6.64478	60.2301	0	
-10.3925	61.9902	0	
-15.5855	62.491	0	
-20.7461	62.9987	0	
-25.7954	63.5462	0	
-30.8402	64.1367	0	
-35.9905	64.7724	0	
37.5778	70.0195	0	
32.341	69.4128	0	
27.2088	68.8339	0	
22.0762	68.2818	0	
16.8413	67.7522	0	
11.603	67.2158	0	
8.23465	65.3072	0	
6.1184	62.6564	0	
4.13469	59.4177	0	
2.20103	55.2644	0	
1.32085	50.2844	0	
0.86815	50.1756	0	
0.932942	50.3412	0	
0.759764	50.4699	0	
0.607771	50.5961	0	
0.603471	50.6723	0	
0.640651	50.7409	0	
0.606345	50.8565	0	
0.631359	50.9634	0	
0.96706	51.1653	0	
1.11557	51.4572	0	
0.919949	51.9418	0	
0.745965	52.4198	0	
0.578879	52.7854	0	
0.346796	53.0031	0	
0.0527002	53.065	0	
-0.273197	52.9754	0	
-0.589848	52.744	0	
-0.862923	52.3825	0	
-1.11243	51.9167	0	
-1.2812	51.4327	0	
-1.04214	51.1216	0	
-0.688755	50.9158	0	
-0.651454	50.8095	0	
-0.675546	50.6961	0	
-0.625443	50.6296	0	
-0.61283	50.5582	0	
-0.746625	50.4442	0	
-0.945079	50.3308	0	
-0.845045	50.1481	0	
-1.2913	50.2596	0	
-2.26647	55.2429	0	
-4.23466	59.4132	0	
-6.19714	62.6683	0	
-8.24834	65.3329	0	
-11.5316	67.2537	0	
-16.7578	67.7911	0	
-21.9878	68.3214	0	
-27.1167	68.8736	0	
-32.2461	69.4526	0	
-37.4806	70.0591	0	
38.979	75.3663	0	
33.7025	74.7878	0	
28.5273	74.2193	0	
23.3559	73.6607	0	
18.0913	73.1069	0	
12.8583	72.5328	0	
9.67836	70.7281	0	
7.39543	68.1416	0	
5.56626	64.7862	0	
3.88352	60.3478	0	
2.40972	54.1273	0	
1.51668	52.1151	0	
1.31819	51.9869	0	
1.55912	52.3273	0	
1.22367	52.4072	0	
1.25341	52.4422	0	
1.33765	52.4768	0	
1.4381	52.5077	0	
1.48258	52.6856	0	
1.57801	52.8839	0	
1.69555	53.1183	0	
1.39542	53.3087	0	
1.0673	53.7545	0	
0.777424	54.1395	0	
0.429218	54.3664	0	
-0.00403598	54.4367	0	
-0.467355	54.3556	0	
-0.890088	54.1257	0	
-1.25063	53.743	0	
-1.56969	53.289	0	
-1.77356	53.0665	0	
-1.64399	52.8268	0	
-1.53944	52.628	0	
-1.48536	52.4504	0	
-1.37449	52.42	0	
-1.27773	52.3857	0	
-1.22981	52.3476	0	
-1.53098	52.2586	0	
-1.31347	51.9295	0	
-1.50029	52.0613	0	
-2.42986	54.075	0	
-4.01373	60.3173	0	
-5.70719	64.774	0	
-7.50551	68.146	0	
-9.71615	70.7486	0	
-12.7899	72.5672	0	
-18.0096	73.1431	0	
-23.2688	73.6974	0	
-28.4358	74.256	0	
-33.6078	74.8244	0	
-38.8816	75.403	0	
40.2957	80.7268	0	
35.0207	80.1749	0	
29.8423	79.6174	0	
24.6718	79.0544	0	
19.4141	78.4788	0	
14.2215	77.86	0	
11.1116	76.1997	0	
8.85056	73.7212	0	
7.13949	70.4659	0	
5.6363	66.4206	0	
3.91445	61.3356	0	
2.16937	54.2855	0	
1.94672	53.7304	0	
1.83398	53.6118	0	
1.80831	53.8449	0	
1.88659	54.0885	0	
2.05381	54.1602	0	
2.17634	54.1582	0	
2.2342	54.1462	0	
2.07035	54.2623	0	
1.95668	54.5053	0	
1.83157	54.723	0	
1.3582	55.0414	0	
0.969248	55.4815	0	
0.514578	55.7381	0	
-0.0589176	55.8188	0	
-0.655956	55.738	0	
-1.1599	55.4805	0	
-1.54263	55.0291	0	
-1.91536	54.6709	0	
-2.01564	54.4386	0	
-2.13746	54.1989	0	
-2.29094	54.0806	0	
-2.22477	54.0921	0	