# vtk DataFile Version 4.1
vtk output
ASCII
DATASET UNSTRUCTURED_GRID

POINTS	12261	float
0	0	0	
0	1	0	
0	2	0	
0	3	0	
0	4	0	
0	5	0	
0	6	0	
0	7	0	
0	8	0	
0	9	0	
0	10	0	
0	11	0	
0	12	0	
0	13	0	
0	14	0	
0	15	0	
0	16	0	
0	17	0	
0	18	0	
0	19	0	
0	20	0	
0	21	0	
0	22	0	
0	23	0	
0	24	0	
0	25	0	
0	26	0	
0	27	0	
0	28	0	
0	29	0	
0	30	0	
0	31	0	
0	32	0	
0	33	0	
0	34	0	
0	35	0	
0	36	0	
0	37	0	
0	38	0	
0	39	0	
0	40	0	
0	41	0	
0	42	0	
0	43	0	
0	44	0	
0	45	0	
0	46	0	
0	47	0	
0	48	0	
0	49	0	
0	50	0	
1	0	0	
1	1	0	
1	2	0	
1	3	0	
1	4	0	
1	5	0	
1	6	0	
1	7	0	
1	8	0	
1	9	0	
1	10	0	
1	11	0	
1	12	0	
1	13	0	
1	14	0	
1	15	0	
1	16	0	
1	17	0	
1	18	0	
1	19	0	
1	20	0	
1	21	0	
1	22	0	
1	23	0	
1	24	0	
1	25	0	
1	26	0	
1	27	0	
1	28	0	
1	29	0	
1	30	0	
1	31	0	
1	32	0	
1	33	0	
1	34	0	
1	35	0	
1	36	0	
1	37	0	
1	38	0	
1	39	0	
1	40	0	
1	41	0	
1	42	0	
1	43	0	
1	44	0	
1	45	0	
1	46	0	
1	47	0	
1	48	0	
1	49	0	
1	50	0	
2	0	0	
2	1	0	
2	2	0	
2	3	0	
2	4	0	
2	5	0	
2	6	0	
2	7	0	
2	8	0	
2	9	0	
2	10	0	
2	11	0	
2	12	0	
2	13	0	
2	14	0	
2	15	0	
2	16	0	
2	17	0	
2	18	0	
2	19	0	
2	20	0	
2	21	0	
2	22	0	
2	23	0	
2	24	0	
2	25	0	
2	26	0	
2	27	0	
2	28	0	
2	29	0	
2	30	0	
2	31	0	
2	32	0	
2	33	0	
2	34	0	
2	35	0	
2	36	0	
2	37	0	
2	38	0	
2	39	0	
2	40	0	
2	41	0	
2	42	0	
2	43	0	
2	44	0	
2	45	0	
2	46	0	
2	47	0	
2	48	0	
2	49	0	
2	50	0	
3	0	0	
3	1	0	
3	2	0	
3	3	0	
3	4	0	
3	5	0	
3	6	0	
3	7	0	
3	8	0	
3	9	0	
3	10	0	
3	11	0	
3	12	0	
3	13	0	
3	14	0	
3	15	0	
3	16	0	
3	17	0	
3	18	0	
3	19	0	
3	20	0	
3	21	0	
3	22	0	
3	23	0	
3	24	0	
3	25	0	
3	26	0	
3	27	0	
3	28	0	
3	29	0	
3	30	0	
3	31	0	
3	32	0	
3	33	0	
3	34	0	
3	35	0	
3	36	0	
3	37	0	
3	38	0	
3	39	0	
3	40	0	
3	41	0	
3	42	0	
3	43	0	
3	44	0	
3	45	0	
3	46	0	
3	47	0	
3	48	0	
3	49	0	
3	50	0	
4	0	0	
4	1	0	
4	2	0	
4	3	0	
4	4	0	
4	5	0	
4	6	0	
4	7	0	
4	8	0	
4	9	0	
4	10	0	
4	11	0	
4	12	0	
4	13	0	
4	14	0	
4	15	0	
4	16	0	
4	17	0	
4	18	0	
4	19	0	
4	20	0	
4	21	0	
4	22	0	
4	23	0	
4	24	0	
4	25	0	
4	26	0	
4	27	0	
4	28	0	
4	29	0	
4	30	0	
4	31	0	
4	32	0	
4	33	0	
4	34	0	
4	35	0	
4	36	0	
4	37	0	
4	38	0	
4	39	0	
4	40	0	
4	41	0	
4	42	0	
4	43	0	
4	44	0	
4	45	0	
4	46	0	
4	47	0	
4	48	0	
4	49	0	
4	50	0	
5	0	0	
5	1	0	
5	2	0	
5	3	0	
5	4	0	
5	5	0	
5	6	0	
5	7	0	
5	8	0	
5	9	0	
5	10	0	
5	11	0	
5	12	0	
5	13	0	
5	14	0	
5	15	0	
5	16	0	
5	17	0	
5	18	0	
5	19	0	
5	20	0	
5	21	0	
5	22	0	
5	23	0	
5	24	0	
5	25	0	
5	26	0	
5	27	0	
5	28	0	
5	29	0	
5	30	0	
5	31	0	
5	32	0	
5	33	0	
5	34	0	
5	35	0	
5	36	0	
5	37	0	
5	38	0	
5	39	0	
5	40	0	
5	41	0	
5	42	0	
5	43	0	
5	44	0	
5	45	0	
5	46	0	
5	47	0	
5	48	0	
5	49	0	
5	50	0	
6	0	0	
6	1	0	
6	2	0	
6	3	0	
6	4	0	
6	5	0	
6	6	0	
6	7	0	
6	8	0	
6	9	0	
6	10	0	
6	11	0	
6	12	0	
6	13	0	
6	14	0	
6	15	0	
6	16	0	
6	17	0	
6	18	0	
6	19	0	
6	20	0	
6	21	0	
6	22	0	
6	23	0	
6	24	0	
6	25	0	
6	26	0	
6	27	0	
6	28	0	
6	29	0	
6	30	0	
6	31	0	
6	32	0	
6	33	0	
6	34	0	
6	35	0	
6	36	0	
6	37	0	
6	38	0	
6	39	0	
6	40	0	
6	41	0	
6	42	0	
6	43	0	
6	44	0	
6	45	0	
6	46	0	
6	47	0	
6	48	0	
6	49	0	
6	50	0	
7	0	0	
7	1	0	
7	2	0	
7	3	0	
7	4	0	
7	5	0	
7	6	0	
7	7	0	
7	8	0	
7	9	0	
7	10	0	
7	11	0	
7	12	0	
7	13	0	
7	14	0	
7	15	0	
7	16	0	
7	17	0	
7	18	0	
7	19	0	
7	20	0	
7	21	0	
7	22	0	
7	23	0	
7	24	0	
7	25	0	
7	26	0	
7	27	0	
7	28	0	
7	29	0	
7	30	0	
7	31	0	
7	32	0	
7	33	0	
7	34	0	
7	35	0	
7	36	0	
7	37	0	
7	38	0	
7	39	0	
7	40	0	
7	41	0	
7	42	0	
7	43	0	
7	44	0	
7	45	0	
7	46	0	
7	47	0	
7	48	0	
7	49	0	
7	50	0	
8	0	0	
8	1	0	
8	2	0	
8	3	0	
8	4	0	
8	5	0	
8	6	0	
8	7	0	
8	8	0	
8	9	0	
8	10	0	
8	11	0	
8	12	0	
8	13	0	
8	14	0	
8	15	0	
8	16	0	
8	17	0	
8	18	0	
8	19	0	
8	20	0	
8	21	0	
8	22	0	
8	23	0	
8	24	0	
8	25	0	
8	26	0	
8	27	0	
8	28	0	
8	29	0	
8	30	0	
8	31	0	
8	32	0	
8	33	0	
8	34	0	
8	35	0	
8	36	0	
8	37	0	
8	38	0	
8	39	0	
8	40	0	
8	41	0	
8	42	0	
8	43	0	
8	44	0	
8	45	0	
8	46	0	
8	47	0	
8	48	0	
8	49	0	
8	50	0	
9	0	0	
9	1	0	
9	2	0	
9	3	0	
9	4	0	
9	5	0	
9	6	0	
9	7	0	
9	8	0	
9	9	0	
9	10	0	
9	11	0	
9	12	0	
9	13	0	
9	14	0	
9	15	0	
9	16	0	
9	17	0	
9	18	0	
9	19	0	
9	20	0	
9	21	0	
9	22	0	
9	23	0	
9	24	0	
9	25	0	
9	26	0	
9	27	0	
9	28	0	
9	29	0	
9	30	0	
9	31	0	
9	32	0	
9	33	0	
9	34	0	
9	35	0	
9	36	0	
9	37	0	
9	38	0	
9	39	0	
9	40	0	
9	41	0	
9	42	0	
9	43	0	
9	44	0	
9	45	0	
9	46	0	
9	47	0	
9	48	0	
9	49	0	
9	50	0	
10	0	0	
10	1	0	
10	2	0	
10	3	0	
10	4	0	
10	5	0	
10	6	0	
10	7	0	
10	8	0	
10	9	0	
10	10	0	
10	11	0	
10	12	0	
10	13	0	
10	14	0	
10	15	0	
10	16	0	
10	17	0	
10	18	0	
10	19	0	
10	20	0	
10	21	0	
10	22	0	
10	23	0	
10	24	0	
10	25	0	
10	26	0	
10	27	0	
10	28	0	
10	29	0	
10	30	0	
10	31	0	
10	32	0	
10	33	0	
10	34	0	
10	35	0	
10	36	0	
10	37	0	
10	38	0	
10	39	0	
10	40	0	
10	41	0	
10	42	0	
10	43	0	
10	44	0	
10	45	0	
10	46	0	
10	47	0	
10	48	0	
10	49	0	
10	50	0	
11	0	0	
11	1	0	
11	2	0	
11	3	0	
11	4	0	
11	5	0	
11	6	0	
11	7	0	
11	8	0	
11	9	0	
11	10	0	
11	11	0	
11	12	0	
11	13	0	
11	14	0	
11	15	0	
11	16	0	
11	17	0	
11	18	0	
11	19	0	
11	20	0	
11	21	0	
11	22	0	
11	23	0	
11	24	0	
11	25	0	
11	26	0	
11	27	0	
11	28	0	
11	29	0	
11	30	0	
11	31	0	
11	32	0	
11	33	0	
11	34	0	
11	35	0	
11	36	0	
11	37	0	
11	38	0	
11	39	0	
11	40	0	
11	41	0	
11	42	0	
11	43	0	
11	44	0	
11	45	0	
11	46	0	
11	47	0	
11	48	0	
11	49	0	
11	50	0	
12	0	0	
12	1	0	
12	2	0	
12	3	0	
12	4	0	
12	5	0	
12	6	0	
12	7	0	
12	8	0	
12	9	0	
12	10	0	
12	11	0	
12	12	0	
12	13	0	
12	14	0	
12	15	0	
12	16	0	
12	17	0	
12	18	0	
12	19	0	
12	20	0	
12	21	0	
12	22	0	
12	23	0	
12	24	0	
12	25	0	
12	26	0	
12	27	0	
12	28	0	
12	29	0	
12	30	0	
12	31	0	
12	32	0	
12	33	0	
12	34	0	
12	35	0	
12	36	0	
12	37	0	
12	38	0	
12	39	0	
12	40	0	
12	41	0	
12	42	0	
12	43	0	
12	44	0	
12	45	0	
12	46	0	
12	47	0	
12	48	0	
12	49	0	
12	50	0	
13	0	0	
13	1	0	
13	2	0	
13	3	0	
13	4	0	
13	5	0	
13	6	0	
13	7	0	
13	8	0	
13	9	0	
13	10	0	
13	11	0	
13	12	0	
13	13	0	
13	14	0	
13	15	0	
13	16	0	
13	17	0	
13	18	0	
13	19	0	
13	20	0	
13	21	0	
13	22	0	
13	23	0	
13	24	0	
13	25	0	
13	26	0	
13	27	0	
13	28	0	
13	29	0	
13	30	0	
13	31	0	
13	32	0	
13	33	0	
13	34	0	
13	35	0	
13	36	0	
13	37	0	
13	38	0	
13	39	0	
13	40	0	
13	41	0	
13	42	0	
13	43	0	
13	44	0	
13	45	0	
13	46	0	
13	47	0	
13	48	0	
13	49	0	
13	50	0	
14	0	0	
14	1	0	
14	2	0	
14	3	0	
14	4	0	
14	5	0	
14	6	0	
14	7	0	
14	8	0	
14	9	0	
14	10	0	
14	11	0	
14	12	0	
14	13	0	
14	14	0	
14	15	0	
14	16	0	
14	17	0	
14	18	0	
14	19	0	
14	20	0	
14	21	0	
14	22	0	
14	23	0	
14	24	0	
14	25	0	
14	26	0	
14	27	0	
14	28	0	
14	29	0	
14	30	0	
14	31	0	
14	32	0	
14	33	0	
14	34	0	
14	35	0	
14	36	0	
14	37	0	
14	38	0	
14	39	0	
14	40	0	
14	41	0	
14	42	0	
14	43	0	
14	44	0	
14	45	0	
14	46	0	
14	47	0	
14	48	0	
14	49	0	
14	50	0	
15	0	0	
15	1	0	
15	2	0	
15	3	0	
15	4	0	
15	5	0	
15	6	0	
15	7	0	
15	8	0	
15	9	0	
15	10	0	
15	11	0	
15	12	0	
15	13	0	
15	14	0	
15	15	0	
15	16	0	
15	17	0	
15	18	0	
15	19	0	
15	20	0	
15	21	0	
15	22	0	
15	23	0	
15	24	0	
15	25	0	
15	26	0	
15	27	0	
15	28	0	
15	29	0	
15	30	0	
15	31	0	
15	32	0	
15	33	0	
15	34	0	
15	35	0	
15	36	0	
15	37	0	
15	38	0	
15	39	0	
15	40	0	
15	41	0	
15	42	0	
15	43	0	
15	44	0	
15	45	0	
15	46	0	
15	47	0	
15	48	0	
15	49	0	
15	50	0	
16	0	0	
16	1	0	
16	2	0	
16	3	0	
16	4	0	
16	5	0	
16	6	0	
16	7	0	
16	8	0	
16	9	0	
16	10	0	
16	11	0	
16	12	0	
16	13	0	
16	14	0	
16	15	0	
16	16	0	
16	17	0	
16	18	0	
16	19	0	
16	20	0	
16	21	0	
16	22	0	
16	23	0	
16	24	0	
16	25	0	
16	26	0	
16	27	0	
16	28	0	
16	29	0	
16	30	0	
16	31	0	
16	32	0	
16	33	0	
16	34	0	
16	35	0	
16	36	0	
16	37	0	
16	38	0	
16	39	0	
16	40	0	
16	41	0	
16	42	0	
16	43	0	
16	44	0	
16	45	0	
16	46	0	
16	47	0	
16	48	0	
16	49	0	
16	50	0	
17	0	0	
17	1	0	
17	2	0	
17	3	0	
17	4	0	
17	5	0	
17	6	0	
17	7	0	
17	8	0	
17	9	0	
17	10	0	
17	11	0	
17	12	0	
17	13	0	
17	14	0	
17	15	0	
17	16	0	
17	17	0	
17	18	0	
17	19	0	
17	20	0	
17	21	0	
17	22	0	
17	23	0	
17	24	0	
17	25	0	
17	26	0	
17	27	0	
17	28	0	
17	29	0	
17	30	0	
17	31	0	
17	32	0	
17	33	0	
17	34	0	
17	35	0	
17	36	0	
17	37	0	
17	38	0	
17	39	0	
17	40	0	
17	41	0	
17	42	0	
17	43	0	
17	44	0	
17	45	0	
17	46	0	
17	47	0	
17	48	0	
17	49	0	
17	50	0	
18	0	0	
18	1	0	
18	2	0	
18	3	0	
18	4	0	
18	5	0	
18	6	0	
18	7	0	
18	8	0	
18	9	0	
18	10	0	
18	11	0	
18	12	0	
18	13	0	
18	14	0	
18	15	0	
18	16	0	
18	17	0	
18	18	0	
18	19	0	
18	20	0	
18	21	0	
18	22	0	
18	23	0	
18	24	0	
18	25	0	
18	26	0	
18	27	0	
18	28	0	
18	29	0	
18	30	0	
18	31	0	
18	32	0	
18	33	0	
18	34	0	
18	35	0	
18	36	0	
18	37	0	
18	38	0	
18	39	0	
18	40	0	
18	41	0	
18	42	0	
18	43	0	
18	44	0	
18	45	0	
18	46	0	
18	47	0	
18	48	0	
18	49	0	
18	50	0	
19	0	0	
19	1	0	
19	2	0	
19	3	0	
19	4	0	
19	5	0	
19	6	0	
19	7	0	
19	8	0	
19	9	0	
19	10	0	
19	11	0	
19	12	0	
19	13	0	
19	14	0	
19	15	0	
19	16	0	
19	17	0	
19	18	0	
19	19	0	
19	20	0	
19	21	0	
19	22	0	
19	23	0	
19	24	0	
19	25	0	
19	26	0	
19	27	0	
19	28	0	
19	29	0	
19	30	0	
19	31	0	
19	32	0	
19	33	0	
19	34	0	
19	35	0	
19	36	0	
19	37	0	
19	38	0	
19	39	0	
19	40	0	
19	41	0	
19	42	0	
19	43	0	
19	44	0	
19	45	0	
19	46	0	
19	47	0	
19	48	0	
19	49	0	
19	50	0	
20	0	0	
20	1	0	
20	2	0	
20	3	0	
20	4	0	
20	5	0	
20	6	0	
20	7	0	
20	8	0	
20	9	0	
20	10	0	
20	11	0	
20	12	0	
20	13	0	
20	14	0	
20	15	0	
20	16	0	
20	17	0	
20	18	0	
20	19	0	
20	20	0	
20	21	0	
20	22	0	
20	23	0	
20	24	0	
20	25	0	
20	26	0	
20	27	0	
20	28	0	
20	29	0	
20	30	0	
20	31	0	
20	32	0	
20	33	0	
20	34	0	
20	35	0	
20	36	0	
20	37	0	
20	38	0	
20	39	0	
20	40	0	
20	41	0	
20	42	0	
20	43	0	
20	44	0	
20	45	0	
20	46	0	
20	47	0	
20	48	0	
20	49	0	
20	50	0	
21	0	0	
21	1	0	
21	2	0	
21	3	0	
21	4	0	
21	5	0	
21	6	0	
21	7	0	
21	8	0	
21	9	0	
21	10	0	
21	11	0	
21	12	0	
21	13	0	
21	14	0	
21	15	0	
21	16	0	
21	17	0	
21	18	0	
21	19	0	
21	20	0	
21	21	0	
21	22	0	
21	23	0	
21	24	0	
21	25	0	
21	26	0	
21	27	0	
21	28	0	
21	29	0	
21	30	0	
21	31	0	
21	32	0	
21	33	0	
21	34	0	
21	35	0	
21	36	0	
21	37	0	
21	38	0	
21	39	0	
21	40	0	
21	41	0	
21	42	0	
21	43	0	
21	44	0	
21	45	0	
21	46	0	
21	47	0	
21	48	0	
21	49	0	
21	50	0	
22	0	0	
22	1	0	
22	2	0	
22	3	0	
22	4	0	
22	5	0	
22	6	0	
22	7	0	
22	8	0	
22	9	0	
22	10	0	
22	11	0	
22	12	0	
22	13	0	
22	14	0	
22	15	0	
22	16	0	
22	17	0	
22	18	0	
22	19	0	
22	20	0	
22	21	0	
22	22	0	
22	23	0	
22	24	0	
22	25	0	
22	26	0	
22	27	0	
22	28	0	
22	29	0	
22	30	0	
22	31	0	
22	32	0	
22	33	0	
22	34	0	
22	35	0	
22	36	0	
22	37	0	
22	38	0	
22	39	0	
22	40	0	
22	41	0	
22	42	0	
22	43	0	
22	44	0	
22	45	0	
22	46	0	
22	47	0	
22	48	0	
22	49	0	
22	50	0	
23	0	0	
23	1	0	
23	2	0	
23	3	0	
23	4	0	
23	5	0	
23	6	0	
23	7	0	
23	8	0	
23	9	0	
23	10	0	
[...]
POINT_DATA	12261
VECTORS u0 float
0	0	0	
0	0	0	
0	0	0	
0	0	0	
0	0	0	
0	0	0	
0	0	0	
0	0	0	
0	0	0	
0	0	0	
0	0	0	
0	0	0	
0	0	0	
0	0	0	
0	0	0	
0	0	0	
0	0	0	
0	0	0	
0	0	0	
0	0	0	
0	0	0	
0	0	0	
0	0	0	
0	0	0	
0	0	0	
0	0	0	
0	0	0	
0	0	0	
0	0	0	
0	0	0	
0	0	0	
0	0	0	
0	0	0	
0	0	0	
0	0	0	
0	0	0	
0	0	0	
0	0	0	
0	0	0	
0	0	0	
0	0	0	
0	0	0	
0	0	0	
0	0	0	
0	0	0	
0	0	0	
0	0	0	
0	0	0	
0	0	0	
0	0	0	
0	0	0	
4.97598	4.35766	0	
2.85359	3.0839	0	
1.96285	2.39055	0	
1.47868	2.07579	0	
1.08785	1.86034	0	
0.686075	1.68394	0	
0.0754272	1.58406	0	
-1.2606	1.71549	0	
-2.97031	2.20671	0	
-1.73419	2.79751	0	
-1.53504	3.19136	0	
-1.42074	3.48208	0	
-1.38008	3.73743	0	
-1.32231	3.98783	0	
-1.35966	4.24432	0	
-1.3969	4.5092	0	
-1.40226	4.77129	0	
-1.38037	5.02851	0	
-1.26989	5.26067	0	
-0.780903	5.37541	0	
-0.465962	5.38856	0	
-0.290102	5.37301	0	
-0.175378	5.35222	0	
-0.0961126	5.33551	0	
-0.0368004	5.32635	0	
0.0130875	5.32624	0	
0.0632691	5.33511	0	
0.123339	5.35148	0	
0.203477	5.37255	0	
0.318689	5.39399	0	
0.494105	5.40628	0	
0.807596	5.38656	0	
1.29255	5.26327	0	
1.39629	5.02313	0	
1.41098	4.76086	0	
1.39951	4.49734	0	
1.35804	4.23415	0	
1.31866	3.98151	0	
1.37645	3.73608	0	
1.41909	3.48558	0	
1.53704	3.19853	0	
1.74112	2.80618	0	
2.9908	2.21293	0	
1.26908	1.72172	0	
-0.0696555	1.58809	0	
-0.681308	1.68658	0	
-1.08353	1.86216	0	
-1.47466	2.07687	0	
-1.95914	2.39083	0	
-2.85021	3.08316	0	
-4.97289	4.35583	0	
8.31385	7.6331	0	
5.69841	6.39352	0	
4.13504	5.49121	0	
3.09992	4.92199	0	
2.27733	4.56382	0	
1.45675	4.34895	0	
0.346246	4.25743	0	
-1.6377	4.30603	0	
-3.56597	4.51594	0	
-3.21529	5.15762	0	
-2.8132	5.79908	0	
-2.63799	6.44135	0	
-2.55335	7.00423	0	
-2.46601	7.5293	0	
-2.45348	8.0213	0	
-2.48864	8.49648	0	
-2.46676	8.95242	0	
-2.3878	9.38526	0	
-2.19686	9.76521	0	
-1.56765	10.0424	0	
-0.947085	10.2148	0	
-0.58746	10.3143	0	
-0.351968	10.3612	0	
-0.191352	10.3842	0	
-0.0742182	10.397	0	
0.0230676	10.406	0	
0.121403	10.4125	0	
0.241361	10.4124	0	
0.40565	10.3972	0	
0.644333	10.3515	0	
1.00515	10.2464	0	
1.62368	10.0625	0	
2.24446	9.77106	0	
2.4219	9.37899	0	
2.4857	8.93877	0	
2.4944	8.48078	0	
2.44994	8.0082	0	
2.45768	7.52197	0	
2.54491	7.00406	0	
2.63382	6.44773	0	
2.8168	5.8096	0	
3.22936	5.16947	0	
3.5887	4.52527	0	
1.65209	4.31529	0	
-0.334996	4.26479	0	
-1.44715	4.35461	0	
-2.26865	4.56809	0	
-3.09184	4.925	0	
-4.12753	5.49294	0	
-5.69168	6.39394	0	
-8.30848	7.63232	0	
11.1557	10.8758	0	
8.33442	9.77863	0	
6.28112	8.8745	0	
4.75478	8.23112	0	
3.49957	7.83281	0	
2.27946	7.6389	0	
0.808595	7.58886	0	
-1.3332	7.58042	0	
-3.49257	7.58749	0	
-4.22636	8.08252	0	
-3.87183	8.60065	0	
-3.72993	9.37984	0	
-3.63674	10.1392	0	
-3.51979	10.8554	0	
-3.42747	11.5312	0	
-3.4207	12.158	0	
-3.34484	12.7611	0	
-3.20117	13.336	0	
-2.94797	13.8438	0	
-2.33631	14.2554	0	
-1.46995	14.5856	0	
-0.923804	14.8404	0	
-0.556124	15.0007	0	
-0.302861	15.0958	0	
-0.120097	15.1505	0	
0.0309463	15.1743	0	
0.184077	15.1694	0	
0.372496	15.1301	0	
0.633288	15.0439	0	
1.00799	14.8844	0	
1.5577	14.6219	0	
2.42117	14.277	0	
3.01924	13.8497	0	
3.25184	13.3295	0	
3.37263	12.7476	0	
3.42852	12.1436	0	
3.42135	11.5208	0	
3.50684	10.8521	0	
3.62455	10.1438	0	
3.72503	9.3907	0	
3.87898	8.61483	0	
4.24938	8.09776	0	
3.51727	7.60079	0	
1.35258	7.59258	0	
-0.792574	7.59928	0	
-2.26539	7.6476	0	
-3.48669	7.8399	0	
-4.74276	8.23669	0	
-6.26995	8.87863	0	
-8.32446	9.78137	0	
-11.1478	10.8773	0	
13.6508	14.1794	0	
10.6479	13.2164	0	
8.26826	12.3911	0	
6.34922	11.7784	0	
4.70232	11.4004	0	
3.13298	11.2394	0	
1.43573	11.2454	0	
-0.545965	11.3403	0	
-2.77556	11.4365	0	
-4.10384	11.8536	0	
-4.54427	11.973	0	
-4.54983	12.5805	0	
-4.53127	13.372	0	
-4.40382	14.1544	0	
-4.23666	14.9132	0	
-4.15661	15.6282	0	
-4.01972	16.3149	0	
-3.82728	16.9469	0	
-3.50527	17.5422	0	
-2.95825	18.1194	0	
-2.05351	18.6233	0	
-1.29734	18.9989	0	
-0.790243	19.2788	0	
-0.435333	19.461	0	
-0.176715	19.5663	0	
0.0380876	19.6072	0	
0.256106	19.5849	0	
0.523433	19.4943	0	
0.889887	19.3198	0	
1.40744	19.0388	0	
2.16894	18.6532	0	
3.06843	18.1342	0	
3.5953	17.5437	0	
3.88969	16.9387	0	
4.05279	16.3027	0	
4.16415	15.6178	0	
4.22702	14.9091	0	
4.38715	14.1588	0	
4.51792	13.384	0	
4.54795	12.597	0	
4.55986	11.9907	0	
4.13317	11.8697	0	
2.80248	11.4522	0	
0.569173	11.3552	0	
-1.41577	11.2588	0	
-3.11495	11.2511	0	
-4.68559	11.4105	0	
-6.33352	11.7868	0	
-8.25366	12.3981	0	
-10.6348	13.222	0	
-13.6402	14.1837	0	
15.8368	17.5664	0	
12.7087	16.7118	0	
10.0804	15.971	0	
7.84043	15.4155	0	
5.8597	15.0766	0	
4.00009	14.945	0	
2.13248	14.9622	0	
0.175533	15.0119	0	
-2.06714	15.0649	0	
-3.56698	15.4118	0	
-4.70292	15.9566	0	
-5.0958	16.172	0	
-5.13475	16.7354	0	
-5.04454	17.4941	0	
-4.84142	18.2457	0	
-4.66834	18.9699	0	
-4.50146	19.6674	0	
-4.2657	20.3578	0	
-3.92276	21.037	0	
-3.38181	21.6875	0	
-2.6009	22.302	0	
-1.70904	22.8258	0	
-1.04397	23.2212	0	
-0.585478	23.4934	0	
-0.242965	23.653	0	
0.0457778	23.7107	0	
0.338751	23.668	0	
0.692685	23.5196	0	
1.16594	23.2517	0	
1.84283	22.8522	0	
2.74064	22.3182	0	
3.51069	21.6916	0	
4.02501	21.0308	0	
4.33385	20.3464	0	
4.53459	19.6567	0	
4.67241	18.965	0	
4.82735	18.2499	0	
5.02578	17.5076	0	
5.12436	16.7552	0	
5.10491	16.1942	0	
4.73228	15.9766	0	
3.59676	15.4307	0	
2.09529	15.0831	0	
-0.149973	15.0293	0	
-2.1093	14.9782	0	
-3.97863	14.9594	0	
-5.83954	15.0894	0	
-7.8214	15.4269	0	
-10.0626	15.981	0	
-12.6926	16.7205	0	
-15.8233	17.5738	0	
17.7776	20.9895	0	
14.561	20.2212	0	
11.7311	19.5531	0	
9.22223	19.0539	0	
6.95827	18.7552	0	
4.85751	18.6501	0	
2.8453	18.6925	0	
0.868344	18.8178	0	
-1.07993	18.9846	0	
-2.84795	19.1899	0	
-4.20648	19.5148	0	
-5.30296	20.0114	0	
-5.51579	20.2744	0	
-5.39399	20.8176	0	
-5.19843	21.516	0	
-4.95638	22.1918	0	
-4.7735	22.8833	0	
-4.5327	23.5979	0	
-4.18745	24.3214	0	
-3.66679	25.0576	0	
-2.99489	25.749	0	
-2.1268	26.3632	0	
-1.3102	26.8611	0	
-0.745183	27.224	0	
-0.315129	27.4381	0	
0.0549292	27.5111	0	
0.429902	27.4468	0	
0.873017	27.2382	0	
1.45439	26.8755	0	
2.28258	26.3723	0	
3.15246	25.7477	0	
3.80634	25.0469	0	
4.29438	24.3057	0	
4.5997	23.5828	0	
4.80131	22.8742	0	
4.95368	22.1931	0	
5.17954	21.5289	0	
5.37653	20.8394	0	
5.51744	20.3003	0	
5.32975	20.0349	0	
4.23697	19.5364	0	
2.87734	19.2112	0	
1.10908	19.0049	0	
-0.840886	18.8371	0	
-2.81953	18.7106	0	
-4.83317	18.6669	0	
-6.93513	18.7706	0	
-9.20022	19.0679	0	
-11.7104	19.5658	0	
-14.542	20.2328	0	
-17.7611	20.9998	0	
19.5339	24.4173	0	
16.2526	23.711	0	
13.2481	23.0976	0	
10.5021	22.6433	0	
7.98753	22.3789	0	
5.67361	22.2993	0	
3.52841	22.3656	0	
1.52728	22.5035	0	
-0.306919	22.6369	0	
-2.08725	22.8236	0	
-3.52389	23.1116	0	
-4.86555	23.3525	0	
-5.60476	23.8852	0	
-5.57125	24.1414	0	
-5.26689	24.6602	0	
-5.03068	25.2984	0	
-4.84701	25.9637	0	
-4.64151	26.6865	0	
-4.31612	27.4392	0	
-3.84047	28.1914	0	
-3.22388	28.9472	0	
-2.44072	29.681	0	
-1.59587	30.2839	0	
-0.906694	30.6999	0	
-0.388384	30.9564	0	
0.0658997	31.0435	0	
0.525314	30.957	0	
1.05676	30.6988	0	
1.7617	30.2775	0	
2.61446	29.6668	0	
3.39087	28.9257	0	
3.98285	28.1659	0	
4.41989	27.4146	0	
4.70062	26.6686	0	
4.8648	25.9571	0	
5.01869	25.3055	0	
5.24386	24.6799	0	
5.56453	24.1696	0	
5.62648	23.9107	0	
4.89409	23.3751	0	
3.55542	23.1326	0	
2.11764	22.8448	0	
0.336854	22.658	0	
-1.49833	22.5241	0	
-3.50063	22.3853	0	
-5.64694	22.3179	0	
-7.96189	22.3965	0	
-10.4775	22.6596	0	
-13.2247	23.1129	0	
-16.2309	23.7252	0	
-19.5144	24.4302	0	
21.1718	27.8355	0	
17.8298	27.167	0	
14.661	26.5884	0	
11.692	26.162	0	
8.94064	25.9206	0	
6.42472	25.8634	0	
4.1571	25.951	0	
2.13575	26.1165	0	
0.344504	26.2914	0	
-1.27014	26.4375	0	
-2.8576	26.5614	0	
-4.20528	26.7006	0	
-5.20787	26.9331	0	
-5.6207	27.4207	0	
-5.07082	27.692	0	
-4.8966	28.2856	0	
-4.77214	28.955	0	
-4.5976	29.6622	0	
-4.32327	30.4183	0	
-3.90181	31.206	0	
-3.33364	31.9927	0	
-2.60835	32.7597	0	
-1.82224	33.4488	0	
-1.06984	33.9684	0	
-0.466464	34.2559	0	
0.0784247	34.3422	0	
0.628044	34.2477	0	
1.24281	33.9514	0	
2.00625	33.4221	0	
2.79303	32.7247	0	
3.50292	31.9531	0	
4.03904	31.1678	0	
4.41633	30.3875	0	
4.64312	29.6439	0	
4.77645	28.9523	0	
4.87518	28.2979	0	
5.04766	27.7149	0	
5.6344	27.4475	0	
5.23271	26.957	0	
4.23417	26.7234	0	
2.88837	26.5839	0	
1.30091	26.4599	0	
-0.313993	26.3134	0	
-2.10573	26.138	0	
-4.12782	25.9719	0	
-6.39624	25.8835	0	
-8.91297	25.9399	0	
-11.6652	26.1803	0	
-14.6353	26.6058	0	
-17.8054	27.1833	0	
-21.1494	27.8507	0	
22.7554	31.2562	0	
19.337	30.6025	0	
16.0017	30.0367	0	
12.8095	29.6146	0	
9.81557	29.3756	0	
7.08862	29.3304	0	
4.69553	29.4426	0	
2.6561	29.6383	0	
0.925509	29.8413	0	
-0.563952	30.0213	0	
-1.94036	30.2068	0	
-3.30811	30.3113	0	
-4.3523	30.3361	0	
-5.19367	30.433	0	
-4.68619	30.7822	0	
-4.59246	31.2538	0	
-4.55017	31.9069	0	
-4.42412	32.5894	0	
-4.20309	33.3099	0	
-3.84931	34.0746	0	
-3.33582	34.869	0	
-2.678	35.6478	0	
-1.93765	36.3507	0	
-1.19911	36.9177	0	
-0.523648	37.295	0	
0.0914425	37.4274	0	
0.709618	37.2787	0	
1.39193	36.8861	0	
2.13407	36.3065	0	
2.86623	35.596	0	
3.4997	34.8164	0	
3.97363	34.0286	0	
4.27877	33.277	0	
4.45138	32.574	0	
4.5396	31.91	0	
4.56436	31.2721	0	
4.67167	30.8089	0	
5.21275	30.4583	0	
4.37737	30.3602	0	
3.33654	30.3348	0	
1.97047	30.2299	0	
0.594806	30.0442	0	
-0.894522	29.8638	0	
-2.62533	29.6604	0	
-4.66519	29.4642	0	
-7.0588	29.3515	0	
-9.7863	29.3961	0	
-12.7808	29.6344	0	
-15.9739	30.0557	0	
-19.3103	30.6206	0	
-22.7303	31.2733	0	
24.3402	34.7182	0	
20.8141	34.0606	0	
17.3048	33.4844	0	
13.882	33.0337	0	
10.6214	32.7596	0	
7.64725	32.6978	0	
5.11131	32.823	0	
3.07067	33.0356	0	
1.43098	33.2478	0	
0.0549721	33.421	0	
-1.13291	33.5811	0	
-2.22682	33.8051	0	
-3.29786	33.9054	0	
-4.21453	33.781	0	
-3.98297	34.3843	0	
-4.12031	34.4233	0	
-4.15053	34.8663	0	
-4.1019	35.4737	0	
-3.95405	36.1432	0	
-3.67897	36.8783	0	
-3.2261	37.6551	0	
-2.64675	38.4208	0	
-1.95684	39.1274	0	
-1.25272	39.6918	0	
-0.555069	40.0414	0	
0.102637	40.1462	0	
0.761655	40.0186	0	
1.46035	39.6489	0	
2.15907	39.0702	0	
2.83073	38.3574	0	
3.3765	37.5946	0	
3.78284	36.8296	0	
4.00665	36.1128	0	
4.10817	35.4647	0	
4.12565	34.8771	0	
4.09324	34.4493	0	
3.98821	34.4135	0	
4.23442	33.8055	0	
3.32288	33.9292	0	
2.25468	33.8285	0	
1.16269	33.604	0	
-0.0241149	33.4438	0	
-1.39973	33.2703	0	
-3.03943	33.0579	0	
-5.0803	32.845	0	
-7.61653	32.7196	0	
-10.591	32.781	0	
-13.8519	33.0546	0	
-17.2752	33.5046	0	
-20.7852	34.0801	0	
-24.3125	34.7367	0	
25.9611	38.2817	0	
22.2914	37.6103	0	
18.6065	37.0051	0	
14.9518	36.4904	0	
11.3915	36.1242	0	
8.09465	35.981	0	
5.37728	36.0643	0	
3.36647	36.2484	0	
1.87829	36.4353	0	
0.63899	36.5884	0	
-0.437011	36.7143	0	
-1.34223	36.8597	0	
-2.15534	37.1584	0	
-2.8161	37.3779	0	
-3.31689	37.3497	0	
-3.52131	37.562	0	
-3.56957	37.7746	0	
-3.62611	38.2756	0	
-3.57976	38.9009	0	
-3.3971	39.591	0	
-3.02339	40.3294	0	
-2.5168	41.0568	0	
-1.89838	41.7196	0	
-1.23062	42.2548	0	
-0.55563	42.6075	0	
0.111141	42.7237	0	
0.77667	42.5805	0	
1.44587	42.2051	0	
2.09862	41.6552	0	
2.68838	40.988	0	
3.15236	40.2672	0	
3.47405	39.5451	0	
3.60553	38.8774	0	
3.61119	38.2756	0	
3.53591	37.7934	0	
3.50806	37.5916	0	
3.32703	37.3757	0	
2.83552	37.4021	0	
2.17967	37.1816	0	
1.36973	36.8822	0	
0.466621	36.7365	0	
-0.608298	36.6106	0	
-1.84706	36.4575	0	
-3.3351	36.2706	0	
-5.34601	36.0865	0	
-8.06348	36.003	0	
-11.3603	36.1461	0	
-14.9206	36.512	0	
-18.5753	37.0262	0	
-22.2606	37.6307	0	
-25.931	38.3013	0	
27.6218	42.0112	0	
23.7824	41.3288	0	
19.9336	40.6949	0	
16.0713	40.1054	0	
12.1785	39.6057	0	
8.45932	39.2951	0	
5.52187	39.0965	0	
3.56816	39.0984	0	
2.28561	39.2947	0	
1.19567	39.4784	0	
0.235069	39.5979	0	
-0.603803	39.6995	0	
-1.2581	39.8244	0	
-1.82746	40.1416	0	
-2.28369	40.4335	0	
-2.82019	40.3692	0	
-2.86956	40.5151	0	
-3.03761	40.9683	0	
-3.10972	41.5509	0	
-3.01652	42.1962	0	
-2.7376	42.893	0	
-2.30389	43.5872	0	
-1.76604	44.2178	0	
-1.14924	44.7284	0	
-0.511659	45.0615	0	
0.115547	45.1701	0	
0.738907	45.0329	0	
1.36361	44.6763	0	
1.95548	44.1517	0	
2.45471	43.5194	0	
2.83793	42.8354	0	
3.0621	42.1585	0	
3.10739	41.5378	0	
3.00475	40.9781	0	
2.83802	40.5415	0	
2.80905	40.4066	0	
2.2919	40.4591	0	
1.84628	40.1636	0	
1.28193	39.8453	0	
0.631217	39.7203	0	
-0.205732	39.6187	0	
-1.16542	39.4995	0	
-2.25474	39.3164	0	
-3.53703	39.1205	0	
-5.49063	39.1186	0	
-8.42811	39.3171	0	
-12.1469	39.6276	0	
-16.0393	40.1272	0	
-19.9011	40.7164	0	
-23.7499	41.3496	0	
-27.5895	42.0313	0	
29.294	45.9471	0	
25.2795	45.2675	0	
21.2849	44.6311	0	
17.2563	44.0246	0	
13.024	43.4664	0	
8.88718	42.9494	0	
5.72997	42.1958	0	
3.82935	41.7741	0	
2.6473	41.8393	0	
1.7591	42.0739	0	
0.875771	42.2571	0	
0.121947	42.3621	0	
-0.505481	42.4348	0	
-1.00503	42.5135	0	
-1.61138	42.7536	0	
-1.90445	43.1449	0	
-2.01252	43.4506	0	
-2.36691	43.5698	0	
-2.55993	44.0789	0	
-2.55638	44.6916	0	
-2.38043	45.3519	0	
-2.02813	46.0246	0	
-1.56826	46.6328	0	
-1.02348	47.1197	0	
-0.450638	47.4237	0	
0.115029	47.5155	0	
0.674298	47.3956	0	
1.22727	47.0691	0	
1.73782	46.5704	0	
2.15026	45.9635	0	
2.44661	45.3041	0	
2.56851	44.6655	0	
2.53182	44.0763	0	
2.3289	43.5866	0	
2.00434	43.47	0	
1.91608	43.1564	0	
1.6234	42.7685	0	
1.02309	42.5303	0	
0.528729	42.4526	0	
-0.0947682	42.3805	0	
-0.846694	42.276	0	
-1.73028	42.094	0	
-2.61706	41.8604	0	
-3.79871	41.7957	0	
-5.69893	42.2176	0	
-8.8563	42.9706	0	
-12.9923	43.4879	0	
-17.2237	44.0461	0	
-21.2515	44.6524	0	
-25.2455	45.2883	0	
-29.2596	45.9672	0	
30.9359	50.0852	0	
26.7634	49.4219	0	
22.6365	48.805	0	
18.4716	48.2266	0	
14.1314	47.6851	0	
9.65688	47.0831	0	
6.08001	45.802	0	
4.18105	44.3119	0	
3.0062	44.2624	0	
2.33099	44.5773	0	
1.50996	44.776	0	
0.818437	44.8972	0	
0.244615	44.9785	0	
-0.258875	45.0454	0	
-0.764951	45.1241	0	
-1.45229	45.2878	0	
-1.56401	45.7436	0	
-1.74045	45.9994	0	
-1.95464	46.4179	0	
-2.05069	47.0483	0	
-1.97612	47.7073	0	
-1.71088	48.366	0	
-1.32841	48.9592	0	
-0.869091	49.4273	0	
-0.384249	49.7189	0	
0.109074	49.8093	0	
0.5936	49.6931	0	
1.0523	49.382	0	
1.46943	48.9053	0	
1.79775	48.3163	0	
2.00533	47.6731	0	
2.03147	47.0349	0	
1.9097	46.4235	0	
1.72109	46.0157	0	
1.5618	45.7573	0	
1.45976	45.3004	0	
0.776771	45.137	0	
0.275816	45.0585	0	
-0.222413	44.9924	0	
-0.791899	44.9124	0	
-1.48014	44.7941	0	
-2.30513	44.5985	0	
-2.97633	44.2819	0	
-4.151	44.3322	0	
-6.0501	45.8225	0	
-9.62715	47.1033	0	
-14.1002	47.7056	0	
-18.4388	48.2473	0	
-22.6023	48.8255	0	
-26.7281	49.4421	0	
-30.8996	50.1047	0	
32.5179	54.383	0	
28.2215	53.7414	0	
23.9826	53.1426	0	
19.7108	52.5824	0	
15.3046	52.0527	0	
10.7097	51.518	0	
6.66011	50.4355	0	
4.93923	47.5104	0	
3.36981	46.5612	0	
2.70366	46.7707	0	
2.15382	47.1443	0	
1.47347	47.3572	0	
0.973241	47.4527	0	
0.486695	47.5331	0	
0.00539901	47.6355	0	
-0.541754	47.7999	0	
-1.18312	47.9531	0	
-1.3379	48.2878	0	
-1.37961	48.674	0	
-1.52656	49.3034	0	
-1.54917	49.9621	0	
-1.37073	50.6121	0	
-1.0705	51.1997	0	
-0.703261	51.6629	0	
-0.310084	51.9565	0	
0.0975806	52.0513	0	
0.494484	51.9349	0	
0.856487	51.6259	0	
1.17562	51.1579	0	
1.41836	50.5773	0	
1.54238	49.9432	0	
1.48338	49.3018	0	
1.3352	48.6832	0	
1.32661	48.2976	0	
1.18064	47.9621	0	
0.546814	47.8087	0	
0.00561043	47.6441	0	
-0.47036	47.5417	0	
-0.951891	47.4618	0	
-1.44658	47.367	0	
-2.12176	47.1536	0	
-2.67513	46.7825	0	
-3.34005	46.5746	0	
-4.9138	47.5229	0	
-6.63537	50.4533	0	
-10.6809	51.5368	0	
-15.2738	52.0719	0	
-19.6781	52.6018	0	
-23.9479	53.1618	0	
-28.185	53.7604	0	
-32.4799	54.4014	0	
34.0321	58.7862	0	
29.6512	58.1653	0	
25.3284	57.5768	0	
20.9843	57.0189	0	
16.5421	56.4785	0	
11.9762	55.9233	0	
8.51629	54.4251	0	
6.12792	52.5213	0	
4.13561	49.8589	0	
3.17282	49.1003	0	
2.60471	49.2303	0	
2.12738	49.5616	0	
1.66398	49.8556	0	
1.21805	49.9842	0	
0.720095	50.0997	0	
0.256882	50.2353	0	
-0.278949	50.5011	0	
-0.73054	50.766	0	
-0.782169	51.1989	0	
-0.981271	51.5099	0	
-1.10313	52.1065	0	
-1.02366	52.7627	0	
-0.815792	53.3568	0	
-0.540651	53.828	0	
-0.23725	54.123	0	
0.0812526	54.2183	0	
0.387476	54.1069	0	
0.656102	53.8015	0	
0.880039	53.3293	0	
1.03164	52.7439	0	
1.06592	52.1013	0	
0.932314	51.5158	0	
0.763094	51.2036	0	
0.720802	50.7695	0	
0.276173	50.5042	0	
-0.252945	50.2383	0	
-0.709875	50.1032	0	
-1.20215	49.9879	0	
-1.64271	49.8588	0	
-2.09983	49.5635	0	
-2.57449	49.2337	0	
-3.14316	49.1056	0	
-4.11589	49.8625	0	
-6.12538	52.5325	0	
-8.50588	54.44	0	
-11.95	55.9396	0	
-16.5125	56.4957	0	
-20.9519	57.0363	0	
-25.2933	57.5941	0	
-29.6137	58.1823	0	
-33.9923	58.8027	0	
35.4845	63.2479	0	
31.0549	62.6443	0	
26.6782	62.0607	0	
22.2913	61.496	0	
17.8373	60.9373	0	
13.3183	60.3504	0	
10.0654	58.9344	0	
7.44567	57.199	0	
5.27362	55.0265	0	
3.79383	51.9757	0	
3.30393	51.8033	0	
2.79352	51.8471	0	
2.46528	52.148	0	
1.91289	52.4299	0	
1.43134	52.5796	0	
0.958504	52.6866	0	
0.518092	52.765	0	
-0.120851	52.9445	0	
-0.441829	53.2958	0	
-0.451967	53.6954	0	
-0.653895	54.1108	0	
-0.693681	54.8064	0	
-0.587409	55.4434	0	
-0.395486	55.9361	0	
-0.174067	56.2403	0	
0.0609949	56.3386	0	
0.282926	56.2302	0	
0.468078	55.9207	0	
0.609476	55.43	0	
0.666389	54.8009	0	
0.602775	54.1135	0	
0.425323	53.6958	0	
0.426109	53.2936	0	
0.11232	52.9413	0	
-0.521383	52.7623	0	
-0.955596	52.6844	0	
-1.42209	52.578	0	
-1.89764	52.4288	0	
-2.44427	52.1483	0	
-2.77096	51.8502	0	
-3.27941	51.8077	0	
-3.77215	51.9799	0	
-5.28292	55.0328	0	
-7.45956	57.2084	0	
-10.0663	58.9463	0	
-13.2958	60.3637	0	
-17.809	60.9517	0	
-22.2592	61.5107	0	
-26.6428	62.0752	0	
-31.0166	62.6585	0	
-35.4433	63.2617	0	
36.8861	67.7339	0	
32.436	67.1443	0	
28.0321	66.5635	0	
23.6265	65.991	0	
19.1781	65.4169	0	
14.7202	64.8181	0	
11.4891	63.4977	0	
8.83867	61.7806	0	
6.65666	59.8042	0	
4.8192	57.4715	0	
3.89607	54.4609	0	
3.584	54.5826	0	
3.42117	54.8492	0	
2.69477	54.956	0	
2.13405	55.0836	0	
1.6868	55.192	0	
1.25738	55.2668	0	
0.743354	55.3082	0	
-0.114234	55.3469	0	
-0.182728	55.72	0	
-0.346861	56.1074	0	
-0.415083	56.7967	0	
-0.409454	57.4914	0	
-0.279176	58.0137	0	
-0.119465	58.3244	0	
0.0382759	58.4264	0	
0.182938	58.3202	0	
0.307629	58.0088	0	
0.393163	57.4895	0	
0.365135	56.798	0	
0.309218	56.106	0	
0.16221	55.7133	0	
0.0993538	55.3397	0	
-0.752747	55.3009	0	
-1.26148	55.2594	0	
-1.68504	55.1848	0	
-2.12589	55.0769	0	
-2.67951	54.9501	0	
-3.40028	54.8428	0	
-3.55737	54.5743	0	
-3.87669	54.4584	0	
-4.83505	57.467	0	
-6.68644	59.8054	0	
-8.8652	61.7863	0	
-11.4984	63.5058	0	
-14.7023	64.8283	0	
-19.1515	65.4279	0	
-23.5948	66.0021	0	
-27.9965	66.5743	0	
-32.3972	67.1548	0	
-36.8438	67.7441	0	
38.2472	72.2203	0	
33.7976	71.6422	0	
29.3873	71.065	0	
24.9818	70.4888	0	
20.5423	69.9047	0	
16.1242	69.2937	0	
12.9554	68.06	0	
10.2787	66.4368	0	
8.11556	64.4141	0	
6.25601	62.0578	0	
4.90096	59.0804	0	
4.35149	57.1562	0	
3.86315	57.1136	0	
3.57747	57.4725	0	
2.83051	57.6274	0	
2.41143	57.7093	0	
2.01698	57.7844	0	
1.55731	57.8736	0	
0.94976	58.0597	0	
0.430568	58.2378	0	
-0.0252868	58.4274	0	
-0.227939	58.8763	0	
-0.292383	59.5589	0	
-0.190123	60.1068	0	
-0.0677188	60.4196	0	
0.0147809	60.5206	0	
0.0853139	60.4204	0	
0.177573	60.1098	0	
0.248558	59.5636	0	
0.178487	58.8769	0	
-0.00068545	58.4193	0	
-0.449838	58.2278	0	
-0.964394	58.0487	0	
-1.56735	57.8621	0	
-2.02189	57.7727	0	
-2.41072	57.6975	0	
-2.82324	57.6151	0	
-3.56154	57.4588	0	
-3.84376	57.1007	0	
-4.32808	57.1442	0	
-4.91576	59.0421	0	
-6.29921	62.0426	0	
-8.16203	64.4104	0	
-10.3157	66.4385	0	
-12.9692	68.064	0	
-16.1108	69.2983	0	
-20.5167	69.9118	0	
-24.9501	70.4956	0	
-29.3514	71.0714	0	
-33.7585	71.6484	0	
-38.2045	72.2265	0	
39.5769	76.6905	0	
35.1422	76.1214	0	
30.7397	75.5481	0	
26.3472	74.9721	0	
21.9424	74.384	0	
17.6131	73.7509	0	
14.4545	72.6161	0	
11.7372	71.0963	0	
9.57324	69.1544	0	
7.78117	66.8329	0	
6.22561	64.0047	0	
5.03684	60.0019	0	
4.74086	59.7526	0	
4.06724	59.6177	0	
3.51103	59.8526	0	
3.11355	60.1525	0	
2.77437	60.2876	0	
2.34143	60.3595	0	
1.84642	60.4194	0	
1.21901	60.6364	0	
0.503676	60.8847	0	
0.0669951	61.2307	0	
-0.234129	61.6413	0	
-0.100055	62.2117	0	
-0.012503	62.5546	0	
-0.00703289	62.6625	0	
-0.0109512	62.5582	0	
0.0560632	62.2178	0	
0.185184	61.645	0	
-0.0878745	61.2188	0	
-0.525724	60.8727	0	
-1.23709	60.6232	0	
-1.86086	60.405	0	
-2.35186	60.3445	0	
-2.78024	60.2724	0	