# vtk DataFile Version 4.1
vtk output
ASCII
DATASET UNSTRUCTURED_GRID

POINTS	117	float
0	0	0	
0	2.5	0	
0	5	0	
0	7.5	0	
0	10	0	
0	12.5	0	
0	15	0	
0	17.5	0	
0	20	0	
2.5	0	0	
2.5	2.5	0	
2.5	5	0	
2.5	7.5	0	
2.5	10	0	
2.5	12.5	0	
2.5	15	0	
2.5	17.5	0	
2.5	20	0	
5	0	0	
5	2.5	0	
5	5	0	
5	7.5	0	
5	10	0	
5	12.5	0	
5	15	0	
5	17.5	0	
5	20	0	
7.5	0	0	
7.5	2.5	0	
7.5	5	0	
7.5	7.5	0	
7.5	10	0	
7.5	12.5	0	
7.5	15	0	
7.5	17.5	0	
7.5	20	0	
10	0	0	
10	2.5	0	
10	5	0	
10	7.5	0	
10	10	0	
10	12.5	0	
10	15	0	
10	17.5	0	
10	20	0	
12.5	0	0	
12.5	2.5	0	
12.5	5	0	
12.5	7.5	0	
12.5	10	0	
12.5	12.5	0	
12.5	15	0	
12.5	17.5	0	
12.5	20	0	
15	0	0	
15	2.5	0	
15	5	0	
15	7.5	0	
15	10	0	
15	12.5	0	
15	15	0	
15	17.5	0	
15	20	0	
17.5	0	0	
17.5	2.5	0	
17.5	5	0	
17.5	7.5	0	
17.5	10	0	
17.5	12.5	0	
17.5	15	0	
17.5	17.5	0	
17.5	20	0	
20	0	0	
20	2.5	0	
20	5	0	
20	7.5	0	
20	10	0	
20	12.5	0	
20	15	0	
20	17.5	0	
20	20	0	
22.5	0	0	
22.5	2.5	0	
22.5	5	0	
22.5	7.5	0	
22.5	10	0	
22.5	12.5	0	
22.5	15	0	
22.5	17.5	0	
22.5	20	0	
25	0	0	
25	2.5	0	
25	5	0	
25	7.5	0	
25	10	0	
25	12.5	0	
25	15	0	
25	17.5	0	
25	20	0	
27.5	0	0	
27.5	2.5	0	
27.5	5	0	
27.5	7.5	0	
27.5	10	0	
27.5	12.5	0	
27.5	15	0	
27.5	17.5	0	
27.5	20	0	
30	0	0	
30	2.5	0	
30	5	0	
30	7.5	0	
30	10	0	
30	12.5	0	
30	15	0	
30	17.5	0	
30	20	0	

CELLS 48	192
3	0	20	2	
3	2	22	4	
3	4	22	6	
3	6	24	8	
3	0	18	20	
3	2	20	22	
3	22	24	6	
3	24	26	8	
3	18	38	20	
3	20	40	22	
3	22	40	24	
3	24	42	26	
3	18	36	38	
3	20	38	40	
3	40	42	24	
3	42	44	26	
3	36	56	38	
3	38	58	40	
3	40	58	42	
3	42	60	44	
3	36	54	56	
3	38	56	58	
3	58	60	42	
3	60	62	44	
3	54	74	56	
3	56	76	58	
3	58	76	60	
3	60	78	62	
3	54	72	74	
3	56	74	76	
3	76	78	60	
3	78	80	62	
3	72	92	74	
3	74	94	76	
3	76	94	78	
3	78	96	80	
3	72	90	92	
3	74	92	94	
3	94	96	78	
3	96	98	80	
3	90	110	92	
3	92	112	94	
3	94	112	96	
3	96	114	98	
3	90	108	110	
3	92	110	112	
3	112	114	96	
3	114	116	98	

CELL_TYPES	48
5
5
5
5
5
5
5
5
5
5
5
5
5
5
5
5
5
5
5
5
5
5
5
5
5
5
5
5
5
5
5
5
5
5
5
5
5
5
5
5
5
5
5
5
5
5
5
5

POINT_DATA	117
VECTORS u float
-2.22406e-010	-3.3387e-010	0.600808	
0.438	2.11896e-013	0	
0.75	-3.77164e-014	0.600276	
0.938	1.17171e-013	0	
1	3.90865e-021	0.600053	
0.938	-1.17171e-013	0	
0.75	3.77164e-014	0.600276	
0.438	-2.11896e-013	0	
-2.22406e-010	3.3387e-010	0.600808	
1.66912e-010	-4.58695e-010	0	
0.437902	0.000117425	0	
0.750273	0.000143001	0	
0.937856	4.53015e-005	0	
1.00019	2.0113e-013	0	
0.937856	-4.53015e-005	0	
0.750273	-0.000143001	0	
0.437902	-0.000117425	0	
1.66912e-010	4.58695e-010	0	
1.11213e-010	-2.77893e-010	0.500218	
0.437838	4.79632e-005	0	
0.750392	8.27529e-005	0.500226	
0.937912	2.47343e-005	0	
1.00038	-1.51828e-013	0.500286	
0.937912	-2.47343e-005	0	
0.750392	-8.27529e-005	0.500226	
0.437838	-4.79632e-005	0	
1.11213e-010	2.77893e-010	0.500218	
1.66751e-010	-3.75174e-010	0	
0.437749	1.26981e-005	0	
0.750371	3.64655e-005	0	
0.937939	2.09115e-005	0	
1.00045	2.99544e-014	0	
0.937939	-2.09115e-005	0	
0.750371	-3.64655e-005	0	
0.437749	-1.26981e-005	0	
1.66751e-010	3.75174e-010	0	
1.11171e-010	-2.22336e-010	0.400203	
0.437728	3.84063e-006	0	
0.750373	1.78692e-005	0.40022	
0.937951	1.74978e-005	0	
1.00048	9.04868e-014	0.400193	
0.937951	-1.74978e-005	0	
0.750373	-1.78692e-005	0.40022	
0.437728	-3.84063e-006	0	
1.11171e-010	2.22336e-010	0.400203	
1.66753e-010	-2.91813e-010	0	
0.437726	1.92738e-006	0	
0.75038	7.26467e-006	0	
0.937965	9.97257e-006	0	
1.00049	-7.96627e-014	0	
0.937965	-9.97257e-006	0	
0.75038	-7.26467e-006	0	
0.437726	-1.92738e-006	0	
1.66753e-010	2.91813e-010	0	
1.11168e-010	-1.6675e-010	0.300151	
0.437722	2.01736e-006	0	
0.750378	3.93895e-006	0.300148	
0.937969	4.28311e-006	0	
1.0005	-6.20085e-014	0.300146	
0.937969	-4.28311e-006	0	
0.750378	-3.93895e-006	0.300148	
0.437722	-2.01736e-006	0	
1.11168e-010	1.6675e-010	0.300151	
1.6675e-010	-2.08437e-010	0	
0.43772	1.01312e-006	0	
0.750375	1.75498e-006	0	
0.937967	1.55884e-006	0	
1.0005	-2.26842e-014	0	
0.937967	-1.55884e-006	0	
0.750375	-1.75498e-006	0	
0.43772	-1.01312e-006	0	
1.6675e-010	2.08437e-010	0	
1.11167e-010	-1.11166e-010	0.200099	
0.437719	1.6575e-007	0	
0.750375	4.78888e-007	0.2001	
0.937968	1.7729e-007	0	
1.0005	1.23856e-013	0.200102	
0.937968	-1.7729e-007	0	
0.750375	-4.78888e-007	0.2001	
0.437719	-1.6575e-007	0	
1.11167e-010	1.11166e-010	0.200099	
1.6675e-010	-1.25062e-010	0	
0.437719	-5.64871e-008	0	
0.750375	5.19652e-008	0	
0.937969	-4.53782e-008	0	
1.0005	-2.19728e-013	0	
0.937969	4.53786e-008	0	
0.750375	-5.19654e-008	0	
0.437719	5.64872e-008	0	
1.6675e-010	1.25062e-010	0	
1.11167e-010	-5.55834e-011	0.10005	
0.437719	-2.59708e-008	0	
0.750375	1.22379e-008	0.10005	
0.937969	7.16258e-008	0	
1.0005	1.26467e-013	0.10005	
0.937969	-7.16259e-008	0	
0.750375	-1.22379e-008	0.10005	
0.437719	2.59709e-008	0	
1.11167e-010	5.55834e-011	0.10005	
1.6675e-010	-4.16875e-011	0	
0.437719	-3.89664e-010	0	
0.750375	1.54402e-008	0	
0.937969	5.68017e-008	0	
1.0005	6.97696e-014	0	
0.937969	-5.68018e-008	0	
0.750375	-1.54399e-008	0	
0.437719	3.89389e-010	0	
1.6675e-010	4.16875e-011	0	
1.11167e-010	2.36114e-018	4.19638e-018	
0.437719	7.14019e-009	0	
0.750375	1.76029e-008	5.5115e-017	
0.937969	2.7544e-008	0	
1.0005	-7.89612e-015	-6.46037e-017	
0.937969	-2.75439e-008	0	
0.750375	-1.7603e-008	5.51148e-017	
0.437719	-7.14015e-009	0	
1.11167e-010	-2.38526e-018	4.19654e-018	
