# vtk DataFile Version 4.1
vtk output
ASCII
DATASET UNSTRUCTURED_GRID

POINTS	117	float
0	0	0	
0	2.5	0	
0	5	0	
0	7.5	0	
0	10	0	
0	12.5	0	
0	15	0	
0	17.5	0	
0	20	0	
2.5	0	0	
2.5	2.5	0	
2.5	5	0	
2.5	7.5	0	
2.5	10	0	
2.5	12.5	0	
2.5	15	0	
2.5	17.5	0	
2.5	20	0	
5	0	0	
5	2.5	0	
5	5	0	
5	7.5	0	
5	10	0	
5	12.5	0	
5	15	0	
5	17.5	0	
5	20	0	
7.5	0	0	
7.5	2.5	0	
7.5	5	0	
7.5	7.5	0	
7.5	10	0	
7.5	12.5	0	
7.5	15	0	
7.5	17.5	0	
7.5	20	0	
10	0	0	
10	2.5	0	
10	5	0	
10	7.5	0	
10	10	0	
10	12.5	0	
10	15	0	
10	17.5	0	
10	20	0	
12.5	0	0	
12.5	2.5	0	
12.5	5	0	
12.5	7.5	0	
12.5	10	0	
12.5	12.5	0	
12.5	15	0	
12.5	17.5	0	
12.5	20	0	
15	0	0	
15	2.5	0	
15	5	0	
15	7.5	0	
15	10	0	
15	12.5	0	
15	15	0	
15	17.5	0	
15	20	0	
17.5	0	0	
17.5	2.5	0	
17.5	5	0	
17.5	7.5	0	
17.5	10	0	
17.5	12.5	0	
17.5	15	0	
17.5	17.5	0	
17.5	20	0	
20	0	0	
20	2.5	0	
20	5	0	
20	7.5	0	
20	10	0	
20	12.5	0	
20	15	0	
20	17.5	0	
20	20	0	
22.5	0	0	
22.5	2.5	0	
22.5	5	0	
22.5	7.5	0	
22.5	10	0	
22.5	12.5	0	
22.5	15	0	
22.5	17.5	0	
22.5	20	0	
25	0	0	
25	2.5	0	
25	5	0	
25	7.5	0	
25	10	0	
25	12.5	0	
25	15	0	
25	17.5	0	
25	20	0	
27.5	0	0	
27.5	2.5	0	
27.5	5	0	
27.5	7.5	0	
27.5	10	0	
27.5	12.5	0	
27.5	15	0	
27.5	17.5	0	
27.5	20	0	
30	0	0	
30	2.5	0	
30	5	0	
30	7.5	0	
30	10	0	
30	12.5	0	
30	15	0	
30	17.5	0	
30	20	0	

CELLS 48	192
3	0	20	2	
3	2	22	4	
3	4	22	6	
3	6	24	8	
3	0	18	20	
3	2	20	22	
3	22	24	6	
3	24	26	8	
3	18	38	20	
3	20	40	22	
3	22	40	24	
3	24	42	26	
3	18	36	38	
3	20	38	40	
3	40	42	24	
3	42	44	26	
3	36	56	38	
3	38	58	40	
3	40	58	42	
3	42	60	44	
3	36	54	56	
3	38	56	58	
3	58	60	42	
3	60	62	44	
3	54	74	56	
3	56	76	58	
3	58	76	60	
3	60	78	62	
3	54	72	74	
3	56	74	76	
3	76	78	60	
3	78	80	62	
3	72	92	74	
3	74	94	76	
3	76	94	78	
3	78	96	80	
3	72	90	92	
3	74	92	94	
3	94	96	78	
3	96	98	80	
3	90	110	92	
3	92	112	94	
3	94	112	96	
3	96	114	98	
3	90	108	110	
3	92	110	112	
3	112	114	96	
3	114	116	98	

CELL_TYPES	48
5
5
5
5
5
5
5
5
5
5
5
5
5
5
5
5
5
5
5
5
5
5
5
5
5
5
5
5
5
5
5
5
5
5
5
5
5
5
5
5
5
5
5
5
5
5
5
5

POINT_DATA	117
VECTORS u float
0	0	0	
0.438	0	0	
0.75	0	0	
0.938	0	0	
1	0	0	
0.938	0	0	
0.75	0	0	
0.438	0	0	
0	0	0	
0	0	0	
0.437902	0.000117426	0	
0.750273	0.000143002	0	
0.937856	4.53017e-005	0	
1.00019	-6.52973e-013	0	
0.937856	-4.53017e-005	0	
0.750273	-0.000143002	0	
0.437902	-0.000117426	0	
0	0	0	
0	0	0	
0.437838	4.79636e-005	0	
0.750392	8.27534e-005	0	
0.937912	2.47345e-005	0	
1.00038	6.03365e-013	0	
0.937912	-2.47345e-005	0	
0.750392	-8.27534e-005	0	
0.437838	-4.79636e-005	0	
0	0	0	
0	0	0	
0.437749	1.26984e-005	0	
0.750371	3.64658e-005	0	
0.937939	2.09117e-005	0	
1.00045	1.85274e-013	0	
0.937939	-2.09117e-005	0	
0.750371	-3.64658e-005	0	
0.437749	-1.26984e-005	0	
0	0	0	
0	0	0	
0.437728	3.84088e-006	0	
0.750373	1.78695e-005	0	
0.937951	1.74979e-005	0	
1.00048	-7.65794e-013	0	
0.937951	-1.74979e-005	0	
0.750373	-1.78694e-005	0	
0.437728	-3.84088e-006	0	
0	0	0	
0	0	0	
0.437726	1.92764e-006	0	
0.75038	7.26487e-006	0	
0.937965	9.97269e-006	0	
1.00049	1.3884e-012	0	
0.937965	-9.9727e-006	0	
0.75038	-7.26487e-006	0	
0.437726	-1.92763e-006	0	
0	0	0	
0	0	0	
0.437722	2.01756e-006	0	
0.750378	3.93913e-006	0	
0.937969	4.28322e-006	0	
1.0005	-6.84864e-013	0	
0.937969	-4.28321e-006	0	
0.750378	-3.93913e-006	0	
0.437722	-2.01756e-006	0	
0	0	0	
0	0	0	
0.43772	1.01331e-006	0	
0.750375	1.75511e-006	0	
0.937967	1.55891e-006	0	
1.0005	8.52058e-013	0	
0.937967	-1.55891e-006	0	
0.750375	-1.75512e-006	0	
0.43772	-1.0133e-006	0	
0	0	0	
0	0	0	
0.437719	1.65879e-007	0	
0.750375	4.78992e-007	0	
0.937968	1.77342e-007	0	
1.0005	-1.73327e-012	0	
0.937968	-1.77339e-007	0	
0.750375	-4.78993e-007	0	
0.437719	-1.6588e-007	0	
0	0	0	
0	0	0	
0.437719	-5.63702e-008	0	
0.750375	5.20559e-008	0	
0.937969	-4.53356e-008	0	
1.0005	2.5543e-012	0	
0.937969	4.53309e-008	0	
0.750375	-5.20539e-008	0	
0.437719	5.63709e-008	0	
0	0	0	
0	0	0	
0.437719	-2.59019e-008	0	
0.750375	1.23211e-008	0	
0.937969	7.16728e-008	0	
1.0005	-1.97127e-012	0	
0.937969	-7.16692e-008	0	
0.750375	-1.23216e-008	0	
0.437719	2.59e-008	0	
0	0	0	
0	0	0	
0.437719	-3.37018e-010	0	
0.750375	1.54882e-008	0	
0.937969	5.68276e-008	0	
1.0005	1.185e-012	0	
0.937969	-5.68284e-008	0	
0.750375	-1.54898e-008	0	
0.437719	3.38962e-010	0	
0	0	0	
0	0	0	
0.437719	7.15821e-009	0	
0.750375	1.76159e-008	0	
0.937969	2.75536e-008	0	
1.0005	-1.91383e-013	0	
0.937969	-2.75535e-008	0	
0.750375	-1.76154e-008	0	
0.437719	-7.15875e-009	0	
0	0	0	
SCALARS p float
LOOKUP_TABLE default
0.600808
0
0.600276
0
0.600053
0
0.600276
0
0.600808
0
0
0
0
0
0
0
0
0
0.500218
0
0.500226
0
0.500286
0
0.500226
0
0.500218
0
0
0
0
0
0
0
0
0
0.400203
0
0.40022
0
0.400193
0
0.40022
0
0.400203
0
0
0
0
0
0
0
0
0
0.300151
0
0.300148
0
0.300146
0
0.300148
0
0.300151
0
0
0
0
0
0
0
0
0
0.200099
0
0.2001
0
0.200102
0
0.2001
0
0.200099
0
0
0
0
0
0
0
0
0
0.10005
0
0.10005
0
0.10005
0
0.10005
0
0.10005
0
0
0
0
0
0
0
0
0
0
0
0
0
0
0
0
0
0
