# vtk DataFile Version 4.1
vtk output
ASCII
DATASET UNSTRUCTURED_GRID

POINTS	79	float
0	3	0	
0	2.75	0	
0	2.5	0	
0	2.25	0	
0	2	0	
0.75	3	0	
0.75	2.75	0	
0.75	2.5	0	
0.75	2.25	0	
0.75	2	0	
1.5	3	0	
1.5	2.75	0	
1.5	2.5	0	
1.5	2.25	0	
1.5	2	0	
1.75	3	0	
1.75	2.75	0	
1.75	2.5	0	
1.75	2.25	0	
1.75	2	0	
2	3	0	
2	2.75	0	
2	2.5	0	
2	2.25	0	
2	2	0	
2	1.75	0	
2	1.5	0	
2	1.25	0	
2	1	0	
2	0.5	0	
2	0	0	
2.375	3	0	
2.375	2.75	0	
2.375	2.25	0	
2.375	2	0	
2.375	1.75	0	
2.375	1.5	0	
2.375	1.25	0	
2.375	1	0	
2.375	0.5	0	
2.375	0	0	
2.75	3	0	
2.75	2.5	0	
2.75	2	0	
2.75	1.75	0	
2.75	1.5	0	
2.75	1.25	0	
2.75	1	0	
2.75	0.5	0	
2.75	0	0	
3.25	3	0	
3.25	2.5	0	
3.25	2	0	
3.25	1.75	0	
3.25	1.25	0	
3.25	1	0	
3.25	0.5	0	
3.25	0	0	
3.75	3	0	
3.75	2.5	0	
3.75	2	0	
3.75	1.5	0	
3.75	1	0	
3.75	0.5	0	
3.75	0	0	
4.375	3	0	
4.375	2.5	0	
4.375	2	0	
4.375	1.5	0	
4.375	1	0	
4.375	0.5	0	
4.375	0	0	
5	3	0	
5	2.5	0	
5	2	0	
5	1.5	0	
5	1	0	
5	0.5	0	
5	0	0	

CELLS 30	120
3	0	2	12	
3	2	4	14	
3	0	12	10	
3	2	14	12	
3	10	12	22	
3	12	14	24	
3	10	22	20	
3	12	24	22	
3	20	22	41	
3	22	24	43	
3	24	26	45	
3	26	28	47	
3	28	30	49	
3	22	43	41	
3	24	45	43	
3	26	47	45	
3	28	49	47	
3	41	43	60	
3	43	45	60	
3	45	47	62	
3	47	49	64	
3	41	60	58	
3	45	62	60	
3	47	64	62	
3	58	60	74	
3	60	62	76	
3	62	64	78	
3	58	74	72	
3	60	76	74	
3	62	78	76	

CELL_TYPES	30
5
5
5
5
5
5
5
5
5
5
5
5
5
5
5
5
5
5
5
5
5
5
5
5
5
5
5
5
5
5

POINT_DATA	79
VECTORS u float
0	0	0	
7.5	0	0	
10	0	0	
7.5	0	0	
0	0	0	
0	0	0	
3.72842	0.00855638	0	
4.93246	0.0231464	0	
3.66381	0.0287304	0	
0	0	0	
0	0	0	
3.86668	0.0117178	0	
5.22251	-0.0557197	0	
3.98394	-0.0271871	0	
0	0	0	
0	0	0	
3.73681	-0.123423	0	
5.01555	-0.520483	0	
3.93137	-0.548379	0	
0	0	0	
0	0	0	
3.28693	-0.197214	0	
4.47683	-0.866688	0	
3.49498	-1.09894	0	
0	0	0	
0	0	0	
0	0	0	
0	0	0	
0	0	0	
0	0	0	
0	0	0	
0	0	0	
2.61889	-0.334313	0	
3.37899	-1.66986	0	
1.95196	-1.74891	0	
0.973823	-1.35999	0	
0.378169	-0.966656	0	
0.147407	-0.459559	0	
0.110981	-0.207138	0	
0.0423724	-0.0564965	0	
0	0	0	
0	0	0	
2.61938	-0.850396	0	
2.30878	-1.41323	0	
1.618	-1.34381	0	
1.0092	-1.11435	0	
0.612349	-0.727931	0	
0.418827	-0.431952	0	
0.175102	-0.132783	0	
0	0	0	
0	0	0	
1.68751	-0.402704	0	
1.89688	-0.892489	0	
1.66559	-0.910185	0	
1.11104	-0.618204	0	
0.87078	-0.4285	0	
0.436762	-0.139395	0	
0	0	0	
0	0	0	
1.28751	-0.153286	0	
1.704	-0.44568	0	
1.56409	-0.489886	0	
1.18078	-0.32627	0	
0.673775	-0.107658	0	
0	0	0	
0	0	0	
1.02825	-0.0427285	0	
1.56854	-0.171556	0	
1.65057	-0.256862	0	
1.38618	-0.202363	0	
0.846965	-0.0790018	0	
0	0	0	
0	0	0	
0.931308	-0.044626	0	
1.49361	-0.129245	0	
1.67173	-0.176267	0	
1.47632	-0.133271	0	
0.910562	-0.0656123	0	
0	0	0	
SCALARS p float
LOOKUP_TABLE default
106.615
0
104.845
0
102.993
0
0
0
0
0
45.3239
0
47.2575
0
49.4545
0
0
0
0
0
21.0903
0
25.1818
0
9.74001
0
-3.6788
0
1.15074
0
1.96671
0
0
0
0
0
0
0
0
0
0
5.21524
0
4.1016
0
2.30643
0
2.19839
0
2.09638
0
0
0
0
0
0
0
0
1.11353
0
2.3077
0
1.78219
0
2.26352
0
0
0
0
0
0
0
0
0
0
0
0
0
0
