# vtk DataFile Version 4.1
vtk output
ASCII
DATASET UNSTRUCTURED_GRID

POINTS	79	float
0	3	0	
0	2.75	0	
0	2.5	0	
0	2.25	0	
0	2	0	
0.75	3	0	
0.75	2.75	0	
0.75	2.5	0	
0.75	2.25	0	
0.75	2	0	
1.5	3	0	
1.5	2.75	0	
1.5	2.5	0	
1.5	2.25	0	
1.5	2	0	
1.75	3	0	
1.75	2.75	0	
1.75	2.5	0	
1.75	2.25	0	
1.75	2	0	
2	3	0	
2	2.75	0	
2	2.5	0	
2	2.25	0	
2	2	0	
2	1.75	0	
2	1.5	0	
2	1.25	0	
2	1	0	
2	0.5	0	
2	0	0	
2.375	3	0	
2.375	2.75	0	
2.375	2.25	0	
2.375	2	0	
2.375	1.75	0	
2.375	1.5	0	
2.375	1.25	0	
2.375	1	0	
2.375	0.5	0	
2.375	0	0	
2.75	3	0	
2.75	2.5	0	
2.75	2	0	
2.75	1.75	0	
2.75	1.5	0	
2.75	1.25	0	
2.75	1	0	
2.75	0.5	0	
2.75	0	0	
3.25	3	0	
3.25	2.5	0	
3.25	2	0	
3.25	1.75	0	
3.25	1.25	0	
3.25	1	0	
3.25	0.5	0	
3.25	0	0	
3.75	3	0	
3.75	2.5	0	
3.75	2	0	
3.75	1.5	0	
3.75	1	0	
3.75	0.5	0	
3.75	0	0	
4.375	3	0	
4.375	2.5	0	
4.375	2	0	
4.375	1.5	0	
4.375	1	0	
4.375	0.5	0	
4.375	0	0	
5	3	0	
5	2.5	0	
5	2	0	
5	1.5	0	
5	1	0	
5	0.5	0	
5	0	0	

CELLS 30	120
3	0	2	12	
3	2	4	14	
3	0	12	10	
3	2	14	12	
3	10	12	22	
3	12	14	24	
3	10	22	20	
3	12	24	22	
3	20	22	41	
3	22	24	43	
3	24	26	45	
3	26	28	47	
3	28	30	49	
3	22	43	41	
3	24	45	43	
3	26	47	45	
3	28	49	47	
3	41	43	60	
3	43	45	60	
3	45	47	62	
3	47	49	64	
3	41	60	58	
3	45	62	60	
3	47	64	62	
3	58	60	74	
3	60	62	76	
3	62	64	78	
3	58	74	72	
3	60	76	74	
3	62	78	76	

CELL_TYPES	30
5
5
5
5
5
5
5
5
5
5
5
5
5
5
5
5
5
5
5
5
5
5
5
5
5
5
5
5
5
5

POINT_DATA	79
VECTORS u float
0	0	0	
37.5	0	0	
50	0	0	
37.5	0	0	
0	0	0	
0	0	0	
37.4814	-0.126796	0	
49.9475	-0.193557	0	
37.5701	-0.0233518	0	
0	0	0	
0	0	0	
36.5575	-0.517591	0	
49.5438	-0.530746	0	
38.4446	-0.355062	0	
0	0	0	
0	0	0	
36.3516	-0.373637	0	
50.4085	-0.906138	0	
40.0474	-1.35092	0	
0	0	0	
0	0	0	
33.9568	-1.08489	0	
51.5308	-2.16331	0	
37.4261	-3.60068	0	
0	0	0	
0	0	0	
0	0	0	
0	0	0	
0	0	0	
0	0	0	
0	0	0	
0	0	0	
33.3627	0.0646305	0	
40.4334	-5.47132	0	
13.5692	-3.10693	0	
1.8741	3.2086	0	
-0.595046	4.62886	0	
-0.775617	3.89535	0	
-0.637844	2.86237	0	
-0.538906	0.718542	0	
0	0	0	
0	0	0	
41.2351	-5.08833	0	
22.7426	-5.24746	0	
7.5024	-0.556901	0	
0.0526194	2.87228	0	
-1.528	3.37442	0	
-2.43447	3.20446	0	
-2.64591	1.21315	0	
0	0	0	
0	0	0	
35.8435	-4.78968	0	
27.346	-5.70347	0	
14.4603	-2.47468	0	
0.395497	1.69635	0	
-2.3626	2.50192	0	
-4.56663	1.86493	0	
0	0	0	
0	0	0	
31.8791	-4.44685	0	
32.0848	-7.1662	0	
9.90757	-2.79834	0	
-1.26716	-0.22074	0	
-5.67565	1.0685	0	
0	0	0	
0	0	0	
23.1787	-3.61475	0	
30.6492	-5.39467	0	
15.3835	-4.49317	0	
1.82214	-3.63598	0	
-5.78991	-2.01434	0	
0	0	0	
0	0	0	
18.487	-0.685893	0	
29.4263	-5.50198	0	
18.5417	-7.44723	0	
5.29779	-7.99023	0	
-3.62712	-5.80847	0	
0	0	0	
SCALARS p float
LOOKUP_TABLE default
722.276
0
724.223
0
741.115
0
0
0
0
0
140.25
0
125.266
0
103.829
0
0
0
0
0
-38.4709
0
-49.5317
0
-220.83
0
-138.804
0
-101.988
0
-107.361
0
0
0
0
0
0
0
0
0
0
-27.452
0
-122.259
0
-123.387
0
-116.874
0
-115.927
0
0
0
0
0
0
0
0
-105.602
0
-99.7867
0
-114.246
0
-76.9995
0
0
0
0
0
0
0
0
0
0
0
0
0
0
