# vtk DataFile Version 4.1
vtk output
ASCII
DATASET UNSTRUCTURED_GRID

POINTS	79	float
0	3	0	
0	2.75	0	
0	2.5	0	
0	2.25	0	
0	2	0	
0.75	3	0	
0.75	2.75	0	
0.75	2.5	0	
0.75	2.25	0	
0.75	2	0	
1.5	3	0	
1.5	2.75	0	
1.5	2.5	0	
1.5	2.25	0	
1.5	2	0	
1.75	3	0	
1.75	2.75	0	
1.75	2.5	0	
1.75	2.25	0	
1.75	2	0	
2	3	0	
2	2.75	0	
2	2.5	0	
2	2.25	0	
2	2	0	
2	1.75	0	
2	1.5	0	
2	1.25	0	
2	1	0	
2	0.5	0	
2	0	0	
2.375	3	0	
2.375	2.75	0	
2.375	2.25	0	
2.375	2	0	
2.375	1.75	0	
2.375	1.5	0	
2.375	1.25	0	
2.375	1	0	
2.375	0.5	0	
2.375	0	0	
2.75	3	0	
2.75	2.5	0	
2.75	2	0	
2.75	1.75	0	
2.75	1.5	0	
2.75	1.25	0	
2.75	1	0	
2.75	0.5	0	
2.75	0	0	
3.25	3	0	
3.25	2.5	0	
3.25	2	0	
3.25	1.75	0	
3.25	1.25	0	
3.25	1	0	
3.25	0.5	0	
3.25	0	0	
3.75	3	0	
3.75	2.5	0	
3.75	2	0	
3.75	1.5	0	
3.75	1	0	
3.75	0.5	0	
3.75	0	0	
4.375	3	0	
4.375	2.5	0	
4.375	2	0	
4.375	1.5	0	
4.375	1	0	
4.375	0.5	0	
4.375	0	0	
5	3	0	
5	2.5	0	
5	2	0	
5	1.5	0	
5	1	0	
5	0.5	0	
5	0	0	

CELLS 30	120
3	0	2	12	
3	2	4	14	
3	0	12	10	
3	2	14	12	
3	10	12	22	
3	12	14	24	
3	10	22	20	
3	12	24	22	
3	20	22	41	
3	22	24	43	
3	24	26	45	
3	26	28	47	
3	28	30	49	
3	22	43	41	
3	24	45	43	
3	26	47	45	
3	28	49	47	
3	41	43	60	
3	43	45	60	
3	45	47	62	
3	47	49	64	
3	41	60	58	
3	45	62	60	
3	47	64	62	
3	58	60	74	
3	60	62	76	
3	62	64	78	
3	58	74	72	
3	60	76	74	
3	62	78	76	

CELL_TYPES	30
5
5
5
5
5
5
5
5
5
5
5
5
5
5
5
5
5
5
5
5
5
5
5
5
5
5
5
5
5
5

POINT_DATA	79
VECTORS u float
-0.000149954	0.000291046	0	
0.74988	-0.000143829	0	
1.00003	-2.47992e-005	0	
0.749829	0.000432101	0	
-0.000472366	-0.000903294	0	
4.52897e-005	0.000219597	0	
0.74455	0.00151183	0	
0.98621	0.00395566	0	
0.733394	0.00370641	0	
0.000196064	-0.000213644	0	
6.34381e-005	7.64775e-005	0	
0.768794	0.00185255	0	
1.03949	-0.00954948	0	
0.795045	-0.00444012	0	
2.76142e-005	-0.00012249	0	
-5.32516e-006	6.80459e-005	0	
0.743864	-0.0237712	0	
1.00238	-0.0997687	0	
0.786913	-0.105684	0	
6.78483e-005	-7.89922e-005	0	
3.3305e-005	7.67917e-005	0	
0.656835	-0.0381753	0	
0.900096	-0.167446	0	
0.70135	-0.215289	0	
3.80073e-005	-3.42512e-005	0	
3.30254e-005	-4.56357e-005	0	
4.11458e-005	-1.89855e-005	0	
3.67756e-005	9.50168e-006	0	
1.12706e-005	1.42333e-006	0	
7.11721e-006	1.31821e-005	0	
-2.17486e-005	-1.88004e-005	0	
9.50796e-005	4.9033e-005	0	
0.526754	-0.0649779	0	
0.678903	-0.329679	0	
0.388025	-0.343161	0	
0.190214	-0.260497	0	
0.0728944	-0.182435	0	
0.0276706	-0.084805	0	
0.0210808	-0.0365829	0	
0.00760955	-0.0102207	0	
1.88071e-005	1.97191e-006	0	
3.5535e-005	2.45542e-005	0	
0.528987	-0.171215	0	
0.466537	-0.283686	0	
0.32389	-0.266498	0	
0.20017	-0.218604	0	
0.118914	-0.141885	0	
0.0792074	-0.0823755	0	
0.0303632	-0.0247599	0	
2.23518e-006	8.54274e-006	0	
4.39841e-005	-1.08691e-005	0	
0.340759	-0.0857387	0	
0.387277	-0.182121	0	
0.338119	-0.183102	0	
0.220695	-0.120409	0	
0.169652	-0.0810686	0	
0.0796417	-0.0238994	0	
-4.10792e-006	1.5472e-005	0	
2.4146e-005	-1.67942e-005	0	
0.254788	-0.0382679	0	
0.342646	-0.0963337	0	
0.316628	-0.0951935	0	
0.234847	-0.0583012	0	
0.127414	-0.0171787	0	
-1.60045e-006	1.6613e-005	0	
1.27301e-005	-1.55043e-006	0	
0.202929	-0.00274184	0	
0.321654	-0.0284184	0	
0.338842	-0.0504575	0	
0.275628	-0.048663	0	
0.15818	-0.0255238	0	
-6.71873e-006	-5.4756e-006	0	
7.14131e-006	6.91553e-005	0	
0.18191	0.0635427	0	
0.318927	0.0348139	0	
0.348724	-0.041987	0	
0.294136	-0.0963338	0	
0.170219	-0.0853383	0	
1.16146e-005	-4.29411e-005	0	
SCALARS p float
LOOKUP_TABLE default
20.9211
0
20.6277
0
20.1895
0
0
0
0
0
8.72678
0
9.04383
0
9.44861
0
0
0
0
0
4.01743
0
4.7667
0
1.58565
0
-0.830102
0
0.190933
0
0.338062
0
0
0
0
0
0
0
0
0
0
0.931867
0
0.724523
0
0.407407
0
0.372313
0
0.350606
0
0
0
0
0
0
0
0
0.198656
0
0.342694
0
0.321722
0
0.478004
0
0
0
0
0
0
0
1.49273e-005
0
-7.07814e-006
0
-1.49607e-005
0
7.72489e-006
