# vtk DataFile Version 4.1
vtk output
ASCII
DATASET UNSTRUCTURED_GRID

POINTS	79	float
0	3	0	
0	2.75	0	
0	2.5	0	
0	2.25	0	
0	2	0	
0.75	3	0	
0.75	2.75	0	
0.75	2.5	0	
0.75	2.25	0	
0.75	2	0	
1.5	3	0	
1.5	2.75	0	
1.5	2.5	0	
1.5	2.25	0	
1.5	2	0	
1.75	3	0	
1.75	2.75	0	
1.75	2.5	0	
1.75	2.25	0	
1.75	2	0	
2	3	0	
2	2.75	0	
2	2.5	0	
2	2.25	0	
2	2	0	
2	1.75	0	
2	1.5	0	
2	1.25	0	
2	1	0	
2	0.5	0	
2	0	0	
2.375	3	0	
2.375	2.75	0	
2.375	2.25	0	
2.375	2	0	
2.375	1.75	0	
2.375	1.5	0	
2.375	1.25	0	
2.375	1	0	
2.375	0.5	0	
2.375	0	0	
2.75	3	0	
2.75	2.5	0	
2.75	2	0	
2.75	1.75	0	
2.75	1.5	0	
2.75	1.25	0	
2.75	1	0	
2.75	0.5	0	
2.75	0	0	
3.25	3	0	
3.25	2.5	0	
3.25	2	0	
3.25	1.75	0	
3.25	1.25	0	
3.25	1	0	
3.25	0.5	0	
3.25	0	0	
3.75	3	0	
3.75	2.5	0	
3.75	2	0	
3.75	1.5	0	
3.75	1	0	
3.75	0.5	0	
3.75	0	0	
4.375	3	0	
4.375	2.5	0	
4.375	2	0	
4.375	1.5	0	
4.375	1	0	
4.375	0.5	0	
4.375	0	0	
5	3	0	
5	2.5	0	
5	2	0	
5	1.5	0	
5	1	0	
5	0.5	0	
5	0	0	

CELLS 30	120
3	0	2	12	
3	2	4	14	
3	0	12	10	
3	2	14	12	
3	10	12	22	
3	12	14	24	
3	10	22	20	
3	12	24	22	
3	20	22	41	
3	22	24	43	
3	24	26	45	
3	26	28	47	
3	28	30	49	
3	22	43	41	
3	24	45	43	
3	26	47	45	
3	28	49	47	
3	41	43	60	
3	43	45	60	
3	45	47	62	
3	47	49	64	
3	41	60	58	
3	45	62	60	
3	47	64	62	
3	58	60	74	
3	60	62	76	
3	62	64	78	
3	58	74	72	
3	60	76	74	
3	62	78	76	

CELL_TYPES	30
5
5
5
5
5
5
5
5
5
5
5
5
5
5
5
5
5
5
5
5
5
5
5
5
5
5
5
5
5
5

POINT_DATA	79
VECTORS u float
-2.70112e-010	1.37528e-009	0	
0.75	1.34413e-010	0	
1	1.07033e-011	0	
0.75	-4.52633e-010	0	
2.20772e-010	-5.64126e-010	0	
7.74099e-010	1.97579e-009	0	
0.745303	0.0430025	0	
1.01791	0.00384216	0	
0.703634	-0.179597	0	
5.49396e-010	-1.51947e-009	0	
3.34968e-010	5.47314e-010	0	
0.660463	-0.0932313	0	
0.918477	-0.0702237	0	
0.729905	-0.0143774	0	
4.36597e-010	-5.72184e-010	0	
3.47576e-010	4.79457e-010	0	
0.648843	-0.0592782	0	
0.841053	-0.134409	0	
0.670867	-0.0961883	0	
3.48664e-010	-4.41514e-010	0	
2.21336e-010	1.73436e-010	0	
0.57858	0.0133138	0	
0.766737	-0.129578	0	
0.592818	-0.180122	0	
2.07885e-010	9.05913e-011	0	
4.71738e-012	-5.83109e-011	0	
5.04375e-011	-1.32024e-009	0	
1.14824e-011	-1.90256e-012	0	
-1.62808e-011	-8.98926e-012	0	
-3.33695e-011	-1.26701e-011	0	
-6.08179e-012	-5.50378e-012	0	
2.72563e-010	1.96598e-010	0	
0.456399	-0.0165413	0	
0.602747	-0.246238	0	
0.351735	-0.233609	0	
0.18056	-0.163993	0	
0.0766303	-0.121421	0	
0.0337757	-0.068084	0	
0.0170981	-0.0395318	0	
-0.003535	-0.0132855	0	
-1.61294e-011	-4.52941e-011	0	
1.67113e-010	5.8651e-011	0	
0.445437	-0.113888	0	
0.406108	-0.156145	0	
0.28269	-0.135835	0	
0.184763	-0.125978	0	
0.118691	-0.0999436	0	
0.0772176	-0.0674124	0	
0.0265058	-0.0206706	0	
1.19103e-010	-4.34949e-011	0	
1.07435e-010	6.15297e-011	0	
0.280556	-0.0282501	0	
0.306961	-0.0804776	0	
0.296138	-0.0919361	0	
0.214855	-0.0840193	0	
0.176418	-0.0544811	0	
0.0891241	-0.0130807	0	
2.87803e-011	-7.69942e-011	0	
7.18867e-011	2.73562e-011	0	
0.214471	0.00260243	0	
0.304323	-0.0396561	0	
0.304031	-0.0541392	0	
0.238297	-0.037513	0	
0.12907	-0.0072271	0	
3.52338e-011	-5.53091e-011	0	
7.82598e-011	2.74313e-011	0	
0.192937	0.0224205	0	
0.31809	0.0094496	0	
0.334148	-0.0339479	0	
0.272902	-0.0408378	0	
0.161455	-0.0116207	0	
9.10747e-011	-3.85668e-011	0	
8.43464e-011	6.72922e-011	0	
0.171953	0.0813797	0	
0.320406	0.0629111	0	
0.359492	-0.022755	0	
0.29737	-0.0900792	0	
0.165738	-0.0829368	0	
5.48126e-011	-6.5032e-011	0	
SCALARS p float
LOOKUP_TABLE default
17.4636
0
21.9913
0
7.14519
0
0
0
0
0
8.92761
0
6.49095
0
8.15852
0
0
0
0
0
2.05085
0
4.43953
0
1.49685
0
-0.173957
0
0.146242
0
0.0622646
0
0
0
0
0
0
0
0
0
0
0.538469
0
0.195191
0
0.775194
0
0.498795
0
0.428957
0
0
0
0
0
0
0
0
0.0797887
0
0.507204
0
0.254373
0
0.480805
0
0
0
0
0
0
0
6.08752e-009
0
-1.22978e-008
0
-8.29883e-009
0
3.59664e-009
