# vtk DataFile Version 4.1
vtk output
ASCII
DATASET UNSTRUCTURED_GRID

POINTS	79	float
0	3	0	
0	2.75	0	
0	2.5	0	
0	2.25	0	
0	2	0	
0.75	3	0	
0.75	2.75	0	
0.75	2.5	0	
0.75	2.25	0	
0.75	2	0	
1.5	3	0	
1.5	2.75	0	
1.5	2.5	0	
1.5	2.25	0	
1.5	2	0	
1.75	3	0	
1.75	2.75	0	
1.75	2.5	0	
1.75	2.25	0	
1.75	2	0	
2	3	0	
2	2.75	0	
2	2.5	0	
2	2.25	0	
2	2	0	
2	1.75	0	
2	1.5	0	
2	1.25	0	
2	1	0	
2	0.5	0	
2	0	0	
2.375	3	0	
2.375	2.75	0	
2.375	2.25	0	
2.375	2	0	
2.375	1.75	0	
2.375	1.5	0	
2.375	1.25	0	
2.375	1	0	
2.375	0.5	0	
2.375	0	0	
2.75	3	0	
2.75	2.5	0	
2.75	2	0	
2.75	1.75	0	
2.75	1.5	0	
2.75	1.25	0	
2.75	1	0	
2.75	0.5	0	
2.75	0	0	
3.25	3	0	
3.25	2.5	0	
3.25	2	0	
3.25	1.75	0	
3.25	1.25	0	
3.25	1	0	
3.25	0.5	0	
3.25	0	0	
3.75	3	0	
3.75	2.5	0	
3.75	2	0	
3.75	1.5	0	
3.75	1	0	
3.75	0.5	0	
3.75	0	0	
4.375	3	0	
4.375	2.5	0	
4.375	2	0	
4.375	1.5	0	
4.375	1	0	
4.375	0.5	0	
4.375	0	0	
5	3	0	
5	2.5	0	
5	2	0	
5	1.5	0	
5	1	0	
5	0.5	0	
5	0	0	

CELLS 30	120
3	0	2	12	
3	2	4	14	
3	0	12	10	
3	2	14	12	
3	10	12	22	
3	12	14	24	
3	10	22	20	
3	12	24	22	
3	20	22	41	
3	22	24	43	
3	24	26	45	
3	26	28	47	
3	28	30	49	
3	22	43	41	
3	24	45	43	
3	26	47	45	
3	28	49	47	
3	41	43	60	
3	43	45	60	
3	45	47	62	
3	47	49	64	
3	41	60	58	
3	45	62	60	
3	47	64	62	
3	58	60	74	
3	60	62	76	
3	62	64	78	
3	58	74	72	
3	60	76	74	
3	62	78	76	

CELL_TYPES	30
5
5
5
5
5
5
5
5
5
5
5
5
5
5
5
5
5
5
5
5
5
5
5
5
5
5
5
5
5
5

POINT_DATA	79
VECTORS u float
nan	nan	0	
nan	nan	0	
nan	nan	0	
nan	nan	0	
nan	nan	0	
nan	nan	0	
nan	nan	0	
nan	nan	0	
nan	nan	0	
nan	nan	0	
nan	nan	0	
nan	nan	0	
nan	nan	0	
nan	nan	0	
nan	nan	0	
nan	nan	0	
nan	nan	0	
nan	nan	0	
nan	nan	0	
nan	nan	0	
nan	nan	0	
nan	nan	0	
nan	nan	0	
nan	nan	0	
nan	nan	0	
nan	nan	0	
nan	nan	0	
nan	nan	0	
nan	nan	0	
nan	nan	0	
nan	nan	0	
nan	nan	0	
nan	nan	0	
nan	nan	0	
nan	nan	0	
nan	nan	0	
nan	nan	0	
nan	nan	0	
nan	nan	0	
nan	nan	0	
nan	nan	0	
nan	nan	0	
nan	nan	0	
nan	nan	0	
nan	nan	0	
nan	nan	0	
nan	nan	0	
nan	nan	0	
nan	nan	0	
nan	nan	0	
nan	nan	0	
nan	nan	0	
nan	nan	0	
nan	nan	0	
nan	nan	0	
nan	nan	0	
nan	nan	0	
nan	nan	0	
nan	nan	0	
nan	nan	0	
nan	nan	0	
nan	nan	0	
nan	nan	0	
nan	nan	0	
nan	nan	0	
nan	nan	0	
nan	nan	0	
nan	nan	0	
nan	nan	0	
nan	nan	0	
nan	nan	0	
nan	nan	0	
nan	nan	0	
nan	nan	0	
nan	nan	0	
nan	nan	0	
nan	nan	0	
nan	nan	0	
nan	nan	0	
SCALARS p float
LOOKUP_TABLE default
nan
0
nan
0
nan
0
0
0
0
0
nan
0
nan
0
nan
0
0
0
0
0
nan
0
nan
0
nan
0
nan
0
nan
0
nan
0
0
0
0
0
0
0
0
0
0
nan
0
nan
0
nan
0
nan
0
nan
0
0
0
0
0
0
0
0
nan
0
nan
0
nan
0
nan
0
0
0
0
0
0
0
nan
0
nan
0
nan
0
nan
