# vtk DataFile Version 4.1
vtk output
ASCII
DATASET UNSTRUCTURED_GRID

POINTS	79	float
0	3	0	
0	2.75	0	
0	2.5	0	
0	2.25	0	
0	2	0	
0.75	3	0	
0.75	2.75	0	
0.75	2.5	0	
0.75	2.25	0	
0.75	2	0	
1.5	3	0	
1.5	2.75	0	
1.5	2.5	0	
1.5	2.25	0	
1.5	2	0	
1.75	3	0	
1.75	2.75	0	
1.75	2.5	0	
1.75	2.25	0	
1.75	2	0	
2	3	0	
2	2.75	0	
2	2.5	0	
2	2.25	0	
2	2	0	
2	1.75	0	
2	1.5	0	
2	1.25	0	
2	1	0	
2	0.5	0	
2	0	0	
2.375	3	0	
2.375	2.75	0	
2.375	2.25	0	
2.375	2	0	
2.375	1.75	0	
2.375	1.5	0	
2.375	1.25	0	
2.375	1	0	
2.375	0.5	0	
2.375	0	0	
2.75	3	0	
2.75	2.5	0	
2.75	2	0	
2.75	1.75	0	
2.75	1.5	0	
2.75	1.25	0	
2.75	1	0	
2.75	0.5	0	
2.75	0	0	
3.25	3	0	
3.25	2.5	0	
3.25	2	0	
3.25	1.75	0	
3.25	1.25	0	
3.25	1	0	
3.25	0.5	0	
3.25	0	0	
3.75	3	0	
3.75	2.5	0	
3.75	2	0	
3.75	1.5	0	
3.75	1	0	
3.75	0.5	0	
3.75	0	0	
4.375	3	0	
4.375	2.5	0	
4.375	2	0	
4.375	1.5	0	
4.375	1	0	
4.375	0.5	0	
4.375	0	0	
5	3	0	
5	2.5	0	
5	2	0	
5	1.5	0	
5	1	0	
5	0.5	0	
5	0	0	

CELLS 30	120
3	0	2	12	
3	2	4	14	
3	0	12	10	
3	2	14	12	
3	10	12	22	
3	12	14	24	
3	10	22	20	
3	12	24	22	
3	20	22	41	
3	22	24	43	
3	24	26	45	
3	26	28	47	
3	28	30	49	
3	22	43	41	
3	24	45	43	
3	26	47	45	
3	28	49	47	
3	41	43	60	
3	43	45	60	
3	45	47	62	
3	47	49	64	
3	41	60	58	
3	45	62	60	
3	47	64	62	
3	58	60	74	
3	60	62	76	
3	62	64	78	
3	58	74	72	
3	60	76	74	
3	62	78	76	

CELL_TYPES	30
5
5
5
5
5
5
5
5
5
5
5
5
5
5
5
5
5
5
5
5
5
5
5
5
5
5
5
5
5
5

POINT_DATA	79
VECTORS u float
-1.7198e-011	1.17491e-010	0	
0.075	2.00042e-011	0	
0.1	1.53249e-012	0	
0.075	-4.82197e-011	0	
2.83047e-011	-4.55227e-011	0	
7.3718e-011	1.38507e-010	0	
0.0715261	0.0103584	0	
0.0992434	0.005176	0	
0.0688992	-0.0202665	0	
5.2333e-011	-1.38932e-010	0	
2.9766e-011	4.74895e-011	0	
0.0592484	-0.00603	0	
0.0821341	-0.00717045	0	
0.066427	-0.00531472	0	
4.02685e-011	-5.01045e-011	0	
2.96329e-011	4.15924e-011	0	
0.0559996	-0.00419822	0	
0.07134	-0.0145648	0	
0.05738	-0.013641	0	
3.01406e-011	-3.84625e-011	0	
1.87138e-011	1.41685e-011	0	
0.0479823	0.000599081	0	
0.0609473	-0.0144497	0	
0.0478594	-0.021696	0	
1.65966e-011	-1.67199e-011	0	
1.70574e-012	-4.37686e-012	0	
1.95268e-012	-2.58717e-012	0	
7.77501e-014	-2.95684e-013	0	
-8.82473e-013	-1.26606e-012	0	
-1.82613e-012	-9.80058e-013	0	
-7.23098e-014	-6.32046e-014	0	
2.12176e-011	2.03723e-011	0	
0.0348258	-0.00147126	0	
0.0483952	-0.0309041	0	
0.0258488	-0.031589	0	
0.0116924	-0.0201677	0	
0.00571143	-0.0135558	0	
0.0020146	-0.00692882	0	
0.000521625	-0.00468549	0	
-0.000847622	-0.00171381	0	
-1.2807e-012	-2.39707e-012	0	
6.89578e-012	8.41684e-012	0	
0.0409926	-0.0159428	0	
0.0332148	-0.0242238	0	
0.0227564	-0.0222309	0	
0.0152193	-0.0162489	0	
0.00896526	-0.0112522	0	
0.00488919	-0.00649378	0	
0.000921216	-0.00304514	0	
1.78043e-013	-3.38099e-012	0	
1.28103e-011	5.75148e-012	0	
0.0281642	-0.00749966	0	
0.0303073	-0.0139233	0	
0.0275604	-0.0132538	0	
0.0163183	-0.00633853	0	
0.0122175	-0.004677	0	
0.00526245	-0.00212866	0	
1.07817e-012	-5.85991e-012	0	
6.08352e-012	3.5705e-013	0	
0.01941	-0.00255127	0	
0.0255872	-0.00475108	0	
0.0231686	-0.00200463	0	
0.0173516	-0.00121208	0	
0.00938737	-0.000988126	0	
2.34168e-012	-4.25374e-012	0	
4.68177e-012	9.08994e-013	0	
0.0119645	0.000853453	0	
0.0194092	0.00075889	0	
0.0220643	0.00152423	0	
0.0204274	0.000809493	0	
0.0125542	-0.000387162	0	
7.37722e-012	-3.37719e-012	0	
3.44083e-012	2.80981e-012	0	
0.0097267	0.0049666	0	
0.0172345	0.0058614	0	
0.0210538	0.00287973	0	
0.0210403	-0.000747229	0	
0.013877	-0.00320725	0	
4.98159e-012	-2.83332e-012	0	
SCALARS p float
LOOKUP_TABLE default
1.49277
0
2.15481
0
0.579251
0
0
0
0
0
0.733457
0
0.596731
0
0.64926
0
0
0
0
0
0.159283
0
0.432404
0
0.0495425
0
-0.0209092
0
-0.00101735
0
0.00119958
0
0
0
0
0
0
0
0
0
0
0.108948
0
0.0854665
0
0.0266895
0
0.0375655
0
0.0193621
0
0
0
0
0
0
0
0
0.00416079
0
0.000473982
0
0.0406136
0
0.0349749
0
0
0
0
0
0
0
-1.57943e-012
0
-1.50247e-011
0
-5.3355e-012
0
2.44226e-012
