# vtk DataFile Version 4.1
vtk output
ASCII
DATASET UNSTRUCTURED_GRID

POINTS	79	float
0	3	0	
0	2.75	0	
0	2.5	0	
0	2.25	0	
0	2	0	
0.75	3	0	
0.75	2.75	0	
0.75	2.5	0	
0.75	2.25	0	
0.75	2	0	
1.5	3	0	
1.5	2.75	0	
1.5	2.5	0	
1.5	2.25	0	
1.5	2	0	
1.75	3	0	
1.75	2.75	0	
1.75	2.5	0	
1.75	2.25	0	
1.75	2	0	
2	3	0	
2	2.75	0	
2	2.5	0	
2	2.25	0	
2	2	0	
2	1.75	0	
2	1.5	0	
2	1.25	0	
2	1	0	
2	0.5	0	
2	0	0	
2.375	3	0	
2.375	2.75	0	
2.375	2.25	0	
2.375	2	0	
2.375	1.75	0	
2.375	1.5	0	
2.375	1.25	0	
2.375	1	0	
2.375	0.5	0	
2.375	0	0	
2.75	3	0	
2.75	2.5	0	
2.75	2	0	
2.75	1.75	0	
2.75	1.5	0	
2.75	1.25	0	
2.75	1	0	
2.75	0.5	0	
2.75	0	0	
3.25	3	0	
3.25	2.5	0	
3.25	2	0	
3.25	1.75	0	
3.25	1.25	0	
3.25	1	0	
3.25	0.5	0	
3.25	0	0	
3.75	3	0	
3.75	2.5	0	
3.75	2	0	
3.75	1.5	0	
3.75	1	0	
3.75	0.5	0	
3.75	0	0	
4.375	3	0	
4.375	2.5	0	
4.375	2	0	
4.375	1.5	0	
4.375	1	0	
4.375	0.5	0	
4.375	0	0	
5	3	0	
5	2.5	0	
5	2	0	
5	1.5	0	
5	1	0	
5	0.5	0	
5	0	0	

CELLS 30	120
3	0	2	12	
3	2	4	14	
3	0	12	10	
3	2	14	12	
3	10	12	22	
3	12	14	24	
3	10	22	20	
3	12	24	22	
3	20	22	41	
3	22	24	43	
3	24	26	45	
3	26	28	47	
3	28	30	49	
3	22	43	41	
3	24	45	43	
3	26	47	45	
3	28	49	47	
3	41	43	60	
3	43	45	60	
3	45	47	62	
3	47	49	64	
3	41	60	58	
3	45	62	60	
3	47	64	62	
3	58	60	74	
3	60	62	76	
3	62	64	78	
3	58	74	72	
3	60	76	74	
3	62	78	76	

CELL_TYPES	30
5
5
5
5
5
5
5
5
5
5
5
5
5
5
5
5
5
5
5
5
5
5
5
5
5
5
5
5
5
5

POINT_DATA	79
VECTORS u float
5.23312e-011	7.88589e-012	0	
0.075	1.98623e-012	0	
0.1	8.30488e-013	0	
0.075	-5.05852e-012	0	
5.44778e-011	-1.17477e-013	0	
1.13447e-011	6.13917e-012	0	
0.0128839	0.00517534	0	
0.0180337	0.00349069	0	
0.0136429	-0.000381725	0	
1.11093e-011	-5.57994e-012	0	
8.69354e-013	3.67977e-013	0	
0.000218454	-0.00034937	0	
-0.00328352	-0.00210523	0	
-0.000314587	-0.00122846	0	
3.4095e-013	7.81655e-013	0	
7.6288e-015	1.52321e-014	0	
6.76195e-006	1.04069e-005	0	
-0.000669182	-0.000354866	0	
0.000125022	0.000152539	0	
3.04114e-013	1.09093e-013	0	
-2.5381e-014	-2.36889e-014	0	
-8.52539e-007	-7.90769e-007	0	
0.000174257	9.15933e-005	0	
1.99317e-006	-3.29683e-006	0	
-1.24438e-013	-1.44302e-013	0	
6.19756e-019	3.90089e-019	0	
3.92961e-020	-3.40133e-020	0	
-3.93217e-023	-2.93567e-023	0	
-3.52932e-023	-2.2686e-022	0	
-2.17121e-027	-2.27792e-027	0	
8.5904e-032	1.55739e-031	0	
-4.12222e-016	-4.00679e-016	0	
-6.72421e-007	-4.7124e-007	0	
-4.43823e-007	1.25122e-007	0	
3.01325e-008	5.56788e-008	0	
-9.85007e-011	2.14485e-010	0	
-2.43614e-013	5.19742e-012	0	
-2.12773e-014	-1.19027e-013	0	
-2.02066e-017	-4.14821e-016	0	
-2.48186e-018	-4.30978e-018	0	
-1.19529e-027	-2.56719e-027	0	
-1.91032e-014	-1.4496e-014	0	
-1.70451e-008	-1.17106e-009	0	
6.72885e-008	-5.37321e-008	0	
2.48695e-009	-4.07558e-009	0	
-6.40762e-010	1.06191e-009	0	
1.78824e-012	-9.71258e-012	0	
-4.4297e-013	2.43167e-012	0	
-2.10328e-016	-1.08593e-015	0	
-8.63517e-023	-4.61938e-022	0	
-1.13242e-019	-2.68901e-019	0	
1.03473e-010	2.94093e-011	0	
2.17522e-009	-9.10221e-010	0	
-2.81139e-011	2.53506e-011	0	
2.47416e-012	-1.73527e-012	0	
-2.3261e-015	-5.68234e-015	0	
3.25647e-016	-6.01182e-017	0	
2.79561e-025	-7.62262e-026	0	
5.92248e-020	-2.30805e-020	0	
2.85353e-012	-6.62136e-013	0	
-5.48926e-010	2.18693e-010	0	
1.27702e-012	-9.88454e-013	0	
-9.27863e-013	6.69528e-013	0	
1.98765e-016	-2.92592e-016	0	
2.19413e-022	-1.57027e-022	0	
-1.44594e-024	-1.4938e-024	0	
-2.51994e-015	-1.19862e-015	0	
2.25776e-012	2.8976e-013	0	
3.22551e-013	-8.07253e-013	0	
1.90486e-016	8.77737e-016	0	
9.65048e-017	-1.27245e-016	0	
7.13128e-026	-1.41336e-024	0	
9.11498e-023	1.83055e-023	0	
1.01812e-016	2.09987e-017	0	
-5.64972e-013	-7.24056e-014	0	
-1.04745e-016	4.92353e-016	0	
-8.11654e-014	2.01559e-013	0	
1.40852e-017	-6.14285e-017	0	
9.0243e-023	-1.36521e-022	0	
SCALARS p float
LOOKUP_TABLE default
0.00310056
0
0.00805687
0
0.00148804
0
0
0
0
0
0.000168413
0
0.00161254
0
0.00154917
0
0
0
0
0
3.2866e-009
0
3.73344e-007
0
-1.42578e-008
0
1.88384e-013
0
-5.68975e-018
0
-4.18604e-022
0
0
0
0
0
0
0
0
0
0
-3.66574e-009
0
-6.81687e-009
0
-9.95673e-012
0
3.01192e-015
0
5.39706e-019
0
0
0
0
0
0
0
0
-2.89005e-015
0
4.95115e-012
0
2.53553e-015
0
-5.10309e-019
0
0
0
0
0
0
0
-2.2732e-025
0
4.54119e-022
0
1.33872e-022
0
-3.35899e-026
