# vtk DataFile Version 4.1
vtk output
ASCII
DATASET UNSTRUCTURED_GRID

POINTS	1281	float
0	0	0	
0	0.05	0	
0	0.1	0	
0	0.15	0	
0	0.2	0	
0	0.25	0	
0	0.3	0	
0	0.35	0	
0	0.4	0	
0	0.45	0	
0	0.5	0	
0	0.55	0	
0	0.6	0	
0	0.65	0	
0	0.7	0	
0	0.75	0	
0	0.8	0	
0	0.85	0	
0	0.9	0	
0	0.95	0	
0	1	0	
0.05	0	0	
0.05	0.05	0	
0.05	0.1	0	
0.05	0.15	0	
0.05	0.2	0	
0.05	0.25	0	
0.05	0.3	0	
0.05	0.35	0	
0.05	0.4	0	
0.05	0.45	0	
0.05	0.5	0	
0.05	0.55	0	
0.05	0.6	0	
0.05	0.65	0	
0.05	0.7	0	
0.05	0.75	0	
0.05	0.8	0	
0.05	0.85	0	
0.05	0.9	0	
0.05	0.95	0	
0.05	1	0	
0.1	0	0	
0.1	0.05	0	
0.1	0.1	0	
0.1	0.15	0	
0.1	0.2	0	
0.1	0.25	0	
0.1	0.3	0	
0.1	0.35	0	
0.1	0.4	0	
0.1	0.45	0	
0.1	0.5	0	
0.1	0.55	0	
0.1	0.6	0	
0.1	0.65	0	
0.1	0.7	0	
0.1	0.75	0	
0.1	0.8	0	
0.1	0.85	0	
0.1	0.9	0	
0.1	0.95	0	
0.1	1	0	
0.15	0	0	
0.15	0.05	0	
0.15	0.1	0	
0.15	0.15	0	
0.15	0.2	0	
0.15	0.25	0	
0.15	0.3	0	
0.15	0.35	0	
0.15	0.4	0	
0.15	0.45	0	
0.15	0.5	0	
0.15	0.55	0	
0.15	0.6	0	
0.15	0.65	0	
0.15	0.7	0	
0.15	0.75	0	
0.15	0.8	0	
0.15	0.85	0	
0.15	0.9	0	
0.15	0.95	0	
0.15	1	0	
0.2	0	0	
0.2	0.05	0	
0.2	0.1	0	
0.2	0.15	0	
0.2	0.2	0	
0.2	0.25	0	
0.2	0.3	0	
0.2	0.35	0	
0.2	0.4	0	
0.2	0.45	0	
0.2	0.5	0	
0.2	0.55	0	
0.2	0.6	0	
0.2	0.65	0	
0.2	0.7	0	
0.2	0.75	0	
0.2	0.8	0	
0.2	0.85	0	
0.2	0.9	0	
0.2	0.95	0	
0.2	1	0	
0.25	0	0	
0.25	0.05	0	
0.25	0.1	0	
0.25	0.15	0	
0.25	0.2	0	
0.25	0.25	0	
0.25	0.3	0	
0.25	0.35	0	
0.25	0.4	0	
0.25	0.45	0	
0.25	0.5	0	
0.25	0.55	0	
0.25	0.6	0	
0.25	0.65	0	
0.25	0.7	0	
0.25	0.75	0	
0.25	0.8	0	
0.25	0.85	0	
0.25	0.9	0	
0.25	0.95	0	
0.25	1	0	
0.3	0	0	
0.3	0.05	0	
0.3	0.1	0	
0.3	0.15	0	
0.3	0.2	0	
0.3	0.25	0	
0.3	0.3	0	
0.3	0.35	0	
0.3	0.4	0	
0.3	0.45	0	
0.3	0.5	0	
0.3	0.55	0	
0.3	0.6	0	
0.3	0.65	0	
0.3	0.7	0	
0.3	0.75	0	
0.3	0.8	0	
0.3	0.85	0	
0.3	0.9	0	
0.3	0.95	0	
0.3	1	0	
0.35	0	0	
0.35	0.05	0	
0.35	0.1	0	
0.35	0.15	0	
0.35	0.2	0	
0.35	0.25	0	
0.35	0.3	0	
0.35	0.35	0	
0.35	0.4	0	
0.35	0.45	0	
0.35	0.5	0	
0.35	0.55	0	
0.35	0.6	0	
0.35	0.65	0	
0.35	0.7	0	
0.35	0.75	0	
0.35	0.8	0	
0.35	0.85	0	
0.35	0.9	0	
0.35	0.95	0	
0.35	1	0	
0.4	0	0	
0.4	0.05	0	
0.4	0.1	0	
0.4	0.15	0	
0.4	0.2	0	
0.4	0.25	0	
0.4	0.3	0	
0.4	0.35	0	
0.4	0.4	0	
0.4	0.45	0	
0.4	0.5	0	
0.4	0.55	0	
0.4	0.6	0	
0.4	0.65	0	
0.4	0.7	0	
0.4	0.75	0	
0.4	0.8	0	
0.4	0.85	0	
0.4	0.9	0	
0.4	0.95	0	
0.4	1	0	
0.45	0	0	
0.45	0.05	0	
0.45	0.1	0	
0.45	0.15	0	
0.45	0.2	0	
0.45	0.25	0	
0.45	0.3	0	
0.45	0.35	0	
0.45	0.4	0	
0.45	0.45	0	
0.45	0.5	0	
0.45	0.55	0	
0.45	0.6	0	
0.45	0.65	0	
0.45	0.7	0	
0.45	0.75	0	
0.45	0.8	0	
0.45	0.85	0	
0.45	0.9	0	
0.45	0.95	0	
0.45	1	0	
0.5	0	0	
0.5	0.05	0	
0.5	0.1	0	
0.5	0.15	0	
0.5	0.2	0	
0.5	0.25	0	
0.5	0.3	0	
0.5	0.35	0	
0.5	0.4	0	
0.5	0.45	0	
0.5	0.5	0	
0.5	0.55	0	
0.5	0.6	0	
0.5	0.65	0	
0.5	0.7	0	
0.5	0.75	0	
0.5	0.8	0	
0.5	0.85	0	
0.5	0.9	0	
0.5	0.95	0	
0.5	1	0	
0.55	0	0	
0.55	0.05	0	
0.55	0.1	0	
0.55	0.15	0	
0.55	0.2	0	
0.55	0.25	0	
0.55	0.3	0	
0.55	0.35	0	
0.55	0.4	0	
0.55	0.45	0	
0.55	0.5	0	
0.55	0.55	0	
0.55	0.6	0	
0.55	0.65	0	
0.55	0.7	0	
0.55	0.75	0	
0.55	0.8	0	
0.55	0.85	0	
0.55	0.9	0	
0.55	0.95	0	
0.55	1	0	
0.6	0	0	
0.6	0.05	0	
0.6	0.1	0	
0.6	0.15	0	
0.6	0.2	0	
0.6	0.25	0	
0.6	0.3	0	
0.6	0.35	0	
0.6	0.4	0	
0.6	0.45	0	
0.6	0.5	0	
0.6	0.55	0	
0.6	0.6	0	
0.6	0.65	0	
0.6	0.7	0	
0.6	0.75	0	
0.6	0.8	0	
0.6	0.85	0	
0.6	0.9	0	
0.6	0.95	0	
0.6	1	0	
0.65	0	0	
0.65	0.05	0	
0.65	0.1	0	
0.65	0.15	0	
0.65	0.2	0	
0.65	0.25	0	
0.65	0.3	0	
0.65	0.35	0	
0.65	0.4	0	
0.65	0.45	0	
0.65	0.5	0	
0.65	0.55	0	
0.65	0.6	0	
0.65	0.65	0	
0.65	0.7	0	
0.65	0.75	0	
0.65	0.8	0	
0.65	0.85	0	
0.65	0.9	0	
0.65	0.95	0	
0.65	1	0	
0.7	0	0	
0.7	0.05	0	
0.7	0.1	0	
0.7	0.15	0	
0.7	0.2	0	
0.7	0.25	0	
0.7	0.3	0	
0.7	0.35	0	
0.7	0.4	0	
0.7	0.45	0	
0.7	0.5	0	
0.7	0.55	0	
0.7	0.6	0	
0.7	0.65	0	
0.7	0.7	0	
0.7	0.75	0	
0.7	0.8	0	
0.7	0.85	0	
0.7	0.9	0	
0.7	0.95	0	
0.7	1	0	
0.75	0	0	
0.75	0.05	0	
0.75	0.1	0	
0.75	0.15	0	
0.75	0.2	0	
0.75	0.25	0	
0.75	0.3	0	
0.75	0.35	0	
0.75	0.4	0	
0.75	0.45	0	
0.75	0.5	0	
0.75	0.55	0	
0.75	0.6	0	
0.75	0.65	0	
0.75	0.7	0	
0.75	0.75	0	
0.75	0.8	0	
0.75	0.85	0	
0.75	0.9	0	
0.75	0.95	0	
0.75	1	0	
0.8	0	0	
0.8	0.05	0	
0.8	0.1	0	
0.8	0.15	0	
0.8	0.2	0	
0.8	0.25	0	
0.8	0.3	0	
0.8	0.35	0	
0.8	0.4	0	
0.8	0.45	0	
0.8	0.5	0	
0.8	0.55	0	
0.8	0.6	0	
0.8	0.65	0	
0.8	0.7	0	
0.8	0.75	0	
0.8	0.8	0	
0.8	0.85	0	
0.8	0.9	0	
0.8	0.95	0	
0.8	1	0	
0.85	0	0	
0.85	0.05	0	
0.85	0.1	0	
0.85	0.15	0	
0.85	0.2	0	
0.85	0.25	0	
0.85	0.3	0	
0.85	0.35	0	
0.85	0.4	0	
0.85	0.45	0	
0.85	0.5	0	
0.85	0.55	0	
0.85	0.6	0	
0.85	0.65	0	
0.85	0.7	0	
0.85	0.75	0	
0.85	0.8	0	
0.85	0.85	0	
0.85	0.9	0	
0.85	0.95	0	
0.85	1	0	
0.9	0	0	
0.9	0.05	0	
0.9	0.1	0	
0.9	0.15	0	
0.9	0.2	0	
0.9	0.25	0	
0.9	0.3	0	
0.9	0.35	0	
0.9	0.4	0	
0.9	0.45	0	
0.9	0.5	0	
0.9	0.55	0	
0.9	0.6	0	
0.9	0.65	0	
0.9	0.7	0	
0.9	0.75	0	
0.9	0.8	0	
0.9	0.85	0	
0.9	0.9	0	
0.9	0.95	0	
0.9	1	0	
0.95	0	0	
0.95	0.05	0	
0.95	0.1	0	
0.95	0.15	0	
0.95	0.2	0	
0.95	0.25	0	
0.95	0.3	0	
0.95	0.35	0	
0.95	0.4	0	
0.95	0.45	0	
0.95	0.5	0	
0.95	0.55	0	
0.95	0.6	0	
0.95	0.65	0	
0.95	0.7	0	
0.95	0.75	0	
0.95	0.8	0	
0.95	0.85	0	
0.95	0.9	0	
0.95	0.95	0	
0.95	1	0	
1	0	0	
1	0.05	0	
1	0.1	0	
1	0.15	0	
1	0.2	0	
1	0.25	0	
1	0.3	0	
1	0.35	0	
1	0.4	0	
1	0.45	0	
1	0.5	0	
1	0.55	0	
1	0.6	0	
1	0.65	0	
1	0.7	0	
1	0.75	0	
1	0.8	0	
1	0.85	0	
1	0.9	0	
1	0.95	0	
1	1	0	
0.025	0	0	
0.05	0.025	0	
0.025	0.05	0	
0	0.025	0	
0.05	0.075	0	
0.025	0.1	0	
0	0.075	0	
0.05	0.125	0	
0.025	0.15	0	
0	0.125	0	
0.05	0.175	0	
0.025	0.2	0	
0	0.175	0	
0.05	0.225	0	
0.025	0.25	0	
0	0.225	0	
0.05	0.275	0	
0.025	0.3	0	
0	0.275	0	
0.05	0.325	0	
0.025	0.35	0	
0	0.325	0	
0.05	0.375	0	
0.025	0.4	0	
0	0.375	0	
0.05	0.425	0	
0.025	0.45	0	
0	0.425	0	
0.05	0.475	0	
0.025	0.5	0	
0	0.475	0	
0.05	0.525	0	
0.025	0.55	0	
0	0.525	0	
0.05	0.575	0	
0.025	0.6	0	
0	0.575	0	
0.05	0.625	0	
0.025	0.65	0	
0	0.625	0	
0.05	0.675	0	
0.025	0.7	0	
0	0.675	0	
0.05	0.725	0	
0.025	0.75	0	
0	0.725	0	
0.05	0.775	0	
0.025	0.8	0	
0	0.775	0	
0.05	0.825	0	
0.025	0.85	0	
0	0.825	0	
0.05	0.875	0	
0.025	0.9	0	
0	0.875	0	
0.05	0.925	0	
0.025	0.95	0	
0	0.925	0	
0.05	0.975	0	
0.025	1	0	
0	0.975	0	
0.075	0	0	
0.1	0.025	0	
0.075	0.05	0	
0.1	0.075	0	
0.075	0.1	0	
0.1	0.125	0	
0.075	0.15	0	
0.1	0.175	0	
0.075	0.2	0	
0.1	0.225	0	
0.075	0.25	0	
0.1	0.275	0	
0.075	0.3	0	
0.1	0.325	0	
0.075	0.35	0	
0.1	0.375	0	
0.075	0.4	0	
0.1	0.425	0	
0.075	0.45	0	
0.1	0.475	0	
0.075	0.5	0	
0.1	0.525	0	
0.075	0.55	0	
0.1	0.575	0	
0.075	0.6	0	
0.1	0.625	0	
0.075	0.65	0	
0.1	0.675	0	
0.075	0.7	0	
0.1	0.725	0	
0.075	0.75	0	
0.1	0.775	0	
0.075	0.8	0	
0.1	0.825	0	
0.075	0.85	0	
0.1	0.875	0	
0.075	0.9	0	
0.1	0.925	0	
0.075	0.95	0	
0.1	0.975	0	
0.075	1	0	
0.125	0	0	
0.15	0.025	0	
0.125	0.05	0	
0.15	0.075	0	
0.125	0.1	0	
0.15	0.125	0	
0.125	0.15	0	
0.15	0.175	0	
0.125	0.2	0	
0.15	0.225	0	
0.125	0.25	0	
0.15	0.275	0	
0.125	0.3	0	
0.15	0.325	0	
0.125	0.35	0	
0.15	0.375	0	
0.125	0.4	0	
0.15	0.425	0	
0.125	0.45	0	
0.15	0.475	0	
0.125	0.5	0	
0.15	0.525	0	
0.125	0.55	0	
0.15	0.575	0	
0.125	0.6	0	
0.15	0.625	0	
0.125	0.65	0	
0.15	0.675	0	
0.125	0.7	0	
0.15	0.725	0	
0.125	0.75	0	
0.15	0.775	0	
0.125	0.8	0	
0.15	0.825	0	
0.125	0.85	0	
0.15	0.875	0	
0.125	0.9	0	
0.15	0.925	0	
0.125	0.95	0	
0.15	0.975	0	
0.125	1	0	
0.175	0	0	
0.2	0.025	0	
0.175	0.05	0	
0.2	0.075	0	
0.175	0.1	0	
0.2	0.125	0	
0.175	0.15	0	
0.2	0.175	0	
0.175	0.2	0	
0.2	0.225	0	
0.175	0.25	0	
0.2	0.275	0	
0.175	0.3	0	
0.2	0.325	0	
0.175	0.35	0	
0.2	0.375	0	
0.175	0.4	0	
0.2	0.425	0	
0.175	0.45	0	
0.2	0.475	0	
0.175	0.5	0	
0.2	0.525	0	
0.175	0.55	0	
0.2	0.575	0	
0.175	0.6	0	
0.2	0.625	0	
0.175	0.65	0	
0.2	0.675	0	
0.175	0.7	0	
0.2	0.725	0	
0.175	0.75	0	
0.2	0.775	0	
0.175	0.8	0	
0.2	0.825	0	
0.175	0.85	0	
0.2	0.875	0	
0.175	0.9	0	
0.2	0.925	0	
0.175	0.95	0	
0.2	0.975	0	
0.175	1	0	
0.225	0	0	
0.25	0.025	0	
0.225	0.05	0	
0.25	0.075	0	
0.225	0.1	0	
0.25	0.125	0	
0.225	0.15	0	
0.25	0.175	0	
0.225	0.2	0	
0.25	0.225	0	
0.225	0.25	0	
0.25	0.275	0	
0.225	0.3	0	
0.25	0.325	0	
0.225	0.35	0	
0.25	0.375	0	
0.225	0.4	0	
0.25	0.425	0	
0.225	0.45	0	
0.25	0.475	0	
0.225	0.5	0	
0.25	0.525	0	
0.225	0.55	0	
0.25	0.575	0	
0.225	0.6	0	
0.25	0.625	0	
0.225	0.65	0	
0.25	0.675	0	
0.225	0.7	0	
0.25	0.725	0	
0.225	0.75	0	
0.25	0.775	0	
0.225	0.8	0	
0.25	0.825	0	
0.225	0.85	0	
0.25	0.875	0	
0.225	0.9	0	
0.25	0.925	0	
0.225	0.95	0	
0.25	0.975	0	
0.225	1	0	
0.275	0	0	
0.3	0.025	0	
0.275	0.05	0	
0.3	0.075	0	
0.275	0.1	0	
0.3	0.125	0	
0.275	0.15	0	
0.3	0.175	0	
0.275	0.2	0	
0.3	0.225	0	
0.275	0.25	0	
0.3	0.275	0	
0.275	0.3	0	
0.3	0.325	0	
0.275	0.35	0	
0.3	0.375	0	
0.275	0.4	0	
0.3	0.425	0	
0.275	0.45	0	
0.3	0.475	0	
0.275	0.5	0	
0.3	0.525	0	
0.275	0.55	0	
0.3	0.575	0	
0.275	0.6	0	
0.3	0.625	0	
0.275	0.65	0	
0.3	0.675	0	
0.275	0.7	0	
0.3	0.725	0	
0.275	0.75	0	
0.3	0.775	0	
0.275	0.8	0	
0.3	0.825	0	
0.275	0.85	0	
0.3	0.875	0	
0.275	0.9	0	
0.3	0.925	0	
0.275	0.95	0	
0.3	0.975	0	
0.275	1	0	
0.325	0	0	
0.35	0.025	0	
0.325	0.05	0	
0.35	0.075	0	
0.325	0.1	0	
0.35	0.125	0	
0.325	0.15	0	
0.35	0.175	0	
0.325	0.2	0	
0.35	0.225	0	
0.325	0.25	0	
0.35	0.275	0	
0.325	0.3	0	
0.35	0.325	0	
0.325	0.35	0	
0.35	0.375	0	
0.325	0.4	0	
0.35	0.425	0	
0.325	0.45	0	
0.35	0.475	0	
0.325	0.5	0	
0.35	0.525	0	
0.325	0.55	0	
0.35	0.575	0	
0.325	0.6	0	
0.35	0.625	0	
0.325	0.65	0	
0.35	0.675	0	
0.325	0.7	0	
0.35	0.725	0	
0.325	0.75	0	
0.35	0.775	0	
0.325	0.8	0	
0.35	0.825	0	
0.325	0.85	0	
0.35	0.875	0	
0.325	0.9	0	
0.35	0.925	0	
0.325	0.95	0	
0.35	0.975	0	
0.325	1	0	
0.375	0	0	
0.4	0.025	0	
0.375	0.05	0	
0.4	0.075	0	
0.375	0.1	0	
0.4	0.125	0	
0.375	0.15	0	
0.4	0.175	0	
0.375	0.2	0	
0.4	0.225	0	
0.375	0.25	0	
0.4	0.275	0	
0.375	0.3	0	
0.4	0.325	0	
0.375	0.35	0	
0.4	0.375	0	
0.375	0.4	0	
0.4	0.425	0	
0.375	0.45	0	
0.4	0.475	0	
0.375	0.5	0	
0.4	0.525	0	
0.375	0.55	0	
0.4	0.575	0	
0.375	0.6	0	
0.4	0.625	0	
0.375	0.65	0	
0.4	0.675	0	
0.375	0.7	0	
0.4	0.725	0	
0.375	0.75	0	
0.4	0.775	0	
0.375	0.8	0	
0.4	0.825	0	
0.375	0.85	0	
0.4	0.875	0	
0.375	0.9	0	
0.4	0.925	0	
0.375	0.95	0	
0.4	0.975	0	
0.375	1	0	
0.425	0	0	
0.45	0.025	0	
0.425	0.05	0	
0.45	0.075	0	
0.425	0.1	0	
0.45	0.125	0	
0.425	0.15	0	
0.45	0.175	0	
0.425	0.2	0	
0.45	0.225	0	
0.425	0.25	0	
0.45	0.275	0	
0.425	0.3	0	
0.45	0.325	0	
[...]
POINT_DATA	1281
VECTORS u float
0	0	0	
0	0	0	
0	0	0	
0	0	0	
0	0	0	
0	0	0	
0	0	0	
0	0	0	
0	0	0	
0	0	0	
0	0	0	
0	0	0	
0	0	0	
0	0	0	
0	0	0	
0	0	0	
0	0	0	
0	0	0	
0	0	0	
0	0	0	
1	0	0	
0	0	0	
-0.000393634	0.00038907	0	
-0.00147079	0.00233644	0	
-0.00260506	0.00629905	0	
-0.00361935	0.0122048	0	
-0.00448476	0.0198295	0	
-0.00516975	0.0288789	0	
-0.00564132	0.0389978	0	
-0.00587651	0.0497779	0	
-0.00585216	0.0607681	0	
-0.00562824	0.0715441	0	
-0.0052216	0.0817446	0	
-0.00497176	0.0913058	0	
-0.00482788	0.100397	0	
-0.00616603	0.110283	0	
-0.00809835	0.122399	0	
-0.0165855	0.142455	0	
-0.0252526	0.170842	0	
-0.0577269	0.228067	0	
0.0227783	0.15155	0	
1	0	0	
0	0	0	
-0.00225422	0.00134176	0	
-0.00581725	0.00552329	0	
-0.00949436	0.0126642	0	
-0.012867	0.0226674	0	
-0.0157714	0.0352483	0	
-0.0180918	0.0500011	0	
-0.0197151	0.0664159	0	
-0.0205431	0.0838882	0	
-0.020538	0.101744	0	
-0.0197662	0.119294	0	
-0.0184876	0.135939	0	
-0.0171744	0.15129	0	
-0.0167409	0.165366	0	
-0.0183891	0.178711	0	
-0.024414	0.192475	0	
-0.0361062	0.20734	0	
-0.0539802	0.220513	0	
-0.0420295	0.205306	0	
0.135043	0.134526	0	
1	0	0	
0	0	0	
-0.00570176	0.00212046	0	
-0.0125586	0.00803959	0	
-0.0194194	0.0174295	0	
-0.0257407	0.0300477	0	
-0.0312327	0.0455794	0	
-0.035664	0.0636034	0	
-0.0388065	0.0835765	0	
-0.0404559	0.104826	0	
-0.040497	0.126557	0	
-0.0389958	0.147898	0	
-0.0362993	0.167972	0	
-0.0331381	0.185997	0	
-0.0307067	0.201373	0	
-0.030674	0.213643	0	
-0.0348177	0.222162	0	
-0.0429809	0.22463	0	
-0.0450865	0.214058	0	
0.0085333	0.173082	0	
0.279929	0.0721326	0	
1	0	0	
0	0	0	
-0.0102468	0.00256332	0	
-0.0209126	0.00950577	0	
-0.0312135	0.0201509	0	
-0.0406707	0.0341105	0	
-0.04894	0.0510514	0	
-0.0556857	0.0705879	0	
-0.0605414	0.0922124	0	
-0.0631475	0.11525	0	
-0.0632442	0.13884	0	
-0.0607989	0.161945	0	
-0.0561385	0.183413	0	
-0.0500521	0.202036	0	
-0.0438107	0.216594	0	
-0.0389659	0.225759	0	
-0.0364611	0.227679	0	
-0.0334992	0.21894	0	
-0.0136086	0.192662	0	
0.0792541	0.136911	0	
0.377176	0.0554535	0	
1	0	0	
0	0	0	
-0.015324	0.00271237	0	
-0.0300143	0.00996399	0	
-0.0437826	0.0209053	0	
-0.0563558	0.0350717	0	
-0.0674227	0.0521574	0	
-0.0765707	0.0718593	0	
-0.0832761	0.0937571	0	
-0.0869655	0.11722	0	
-0.0871456	0.141351	0	
-0.0835753	0.164973	0	
-0.0764355	0.186671	0	
-0.0664344	0.204865	0	
-0.0547614	0.21786	0	
-0.0427003	0.22379	0	
-0.0303814	0.220351	0	
-0.0130717	0.204169	0	
0.0287411	0.170114	0	
0.14999	0.113323	0	
0.455328	0.0395301	0	
1	0	0	
0	0	0	
-0.0204235	0.00260905	0	
-0.0390396	0.00952355	0	
-0.0561073	0.0198613	0	
-0.0716509	0.0331864	0	
-0.0854637	0.0492917	0	
-0.0970838	0.068016	0	
-0.105807	0.0890813	0	
-0.11078	0.111952	0	
-0.111174	0.135734	0	
-0.106423	0.159143	0	
-0.0964525	0.180539	0	
-0.0818087	0.198041	0	
-0.0635675	0.209625	0	
-0.0428132	0.213173	0	
-0.0191497	0.206334	0	
0.0131937	0.186246	0	
0.0746077	0.149471	0	
0.215543	0.0942384	0	
0.516946	0.0324071	0	
1	0	0	
0	0	0	
-0.0250903	0.00227875	0	
-0.0472194	0.00825408	0	
-0.067225	0.0171374	0	
-0.0854874	0.0286229	0	
-0.101956	0.0426782	0	
-0.116139	0.0593489	0	
-0.12713	0.0785623	0	
-0.133722	0.0999424	0	
-0.134642	0.122663	0	
-0.128878	0.145386	0	
-0.116001	0.166304	0	
-0.0963522	0.183296	0	
-0.0709382	0.194112	0	
-0.0407942	0.196512	0	
-0.00533206	0.18826	0	
0.0416019	0.167009	0	
0.119975	0.130603	0	
0.274682	0.0798106	0	
0.567971	0.0258161	0	
1	0	0	
0	0	0	
-0.0288989	0.00172867	0	
-0.0538295	0.00619784	0	
-0.0762209	0.0128271	0	
-0.09684	0.0215239	0	
-0.115825	0.0324901	0	
-0.132675	0.0460301	0	
-0.146263	0.06234	0	
-0.154966	0.0812839	0	
-0.15696	0.102198	0	
-0.150656	0.123784	0	
-0.135162	0.144148	0	
-0.110579	0.160991	0	
-0.077895	0.171882	0	
-0.038254	0.174488	0	
0.00885965	0.166664	0	
0.0695107	0.14646	0	
0.16252	0.112592	0	
0.326959	0.0669579	0	
0.610203	0.0213026	0	
1	0	0	
0	0	0	
-0.0314489	0.000973134	0	
-0.0582063	0.00342857	0	
-0.0822551	0.0070999	0	
-0.104743	0.0121566	0	
-0.126016	0.0190544	0	
-0.14559	0.0283779	0	
-0.162129	0.0406387	0	
-0.173563	0.0560315	0	
-0.177424	0.074185	0	
-0.171414	0.0939897	0	
-0.154045	0.113594	0	
-0.125096	0.130604	0	
-0.0855553	0.142425	0	
-0.0367825	0.146588	0	
0.0214652	0.140932	0	
0.0948473	0.123703	0	
0.200581	0.094153	0	
0.372101	0.0549554	0	
0.644966	0.0168434	0	
1	0	0	
0	0	0	
-0.0323983	5.35869e-005	0	
-0.0598051	0.000113987	0	
-0.0846338	0.000306107	0	
-0.108356	0.00106079	0	
-0.131531	0.00305272	0	
-0.153739	0.00711472	0	
-0.173494	0.0140854	0	
-0.188308	0.0245727	0	
-0.195031	0.0386601	0	
-0.190534	0.0556431	0	
-0.172558	0.0739227	0	
-0.140406	0.0911516	0	
-0.0949904	0.104602	0	
-0.0379195	0.11159	0	
0.0306458	0.109781	0	
0.115711	0.0974114	0	
0.232603	0.0739785	0	
0.409413	0.0423929	0	
0.672444	0.0125656	0	
1	0	0	
0	0	0	
-0.0315262	-0.000947036	0	
-0.0582936	-0.00344726	0	
-0.0829164	-0.00696211	0	
-0.107076	-0.0108592	0	
-0.131533	-0.0143428	0	
-0.156001	-0.0164283	0	
-0.178972	-0.0160018	0	
-0.197667	-0.0120008	0	
-0.208315	-0.00372124	0	
-0.206887	0.00881557	0	
-0.190157	0.0245865	0	
-0.156682	0.0415495	0	
-0.10708	0.0569512	0	
-0.0431177	0.0678322	0	
0.0345755	0.0715024	0	
0.130151	0.0659527	0	
0.256828	0.0506497	0	
0.43778	0.0284274	0	
0.692297	0.00784875	0	
1	0	0	
0	0	0	
-0.0288062	-0.00190456	0	
-0.0536538	-0.00683057	0	
-0.0770343	-0.0138819	0	
-0.100673	-0.0223399	0	
-0.125494	-0.0314373	0	
-0.151432	-0.0402007	0	
-0.177144	-0.0473798	0	
-0.199809	-0.0515122	0	
-0.215254	-0.0511755	0	
-0.218615	-0.0454177	0	
-0.205533	-0.0342485	0	
-0.173452	-0.0189542	0	
-0.122274	-0.00201702	0	
-0.0536379	0.013376	0	
0.0314089	0.0240209	0	
0.136	0.0273979	0	
0.271103	0.0226206	0	
0.455461	0.0120319	0	
0.703383	0.00233051	0	
1	0	0	
0	0	0	
-0.0244639	-0.00266984	0	
-0.0462586	-0.00953888	0	
-0.0673903	-0.0194949	0	
-0.0894287	-0.0318801	0	
-0.1134	-0.0461254	0	
-0.139528	-0.0614747	0	
-0.166846	-0.076774	0	
-0.192839	-0.09037	0	
-0.213338	-0.100204	0	
-0.22296	-0.10419	0	
-0.216228	-0.10086	0	
-0.189106	-0.090065	0	
-0.140149	-0.0733692	0	
-0.0702707	-0.0538169	0	
0.0193503	-0.0351328	0	
0.13079	-0.020623	0	
0.272696	-0.011956	0	
0.460011	-0.00790836	0	
0.704464	-0.00395475	0	
1	0	0	
0	0	0	
-0.0189923	-0.00309884	0	
-0.0368902	-0.0110994	0	
-0.0549	-0.0228804	0	
-0.0742469	-0.037986	0	
-0.0959653	-0.0561843	0	
-0.120575	-0.0771294	0	
-0.147646	-0.100051	0	
-0.175325	-0.123479	0	
-0.200001	-0.145095	0	
-0.216393	-0.161869	0	
-0.218327	-0.170632	0	
-0.200207	-0.169059	0	
-0.158576	-0.156685	0	
-0.0926638	-0.135375	0	
-0.0029957	-0.108828	0	
0.111755	-0.0812422	0	
0.258114	-0.0556689	0	
0.448036	-0.0327784	0	
0.692338	-0.0125856	0	
1	0	0	
0	0	0	
-0.0131054	-0.0030919	0	
-0.0266726	-0.0111834	0	
-0.0409398	-0.0233784	0	
-0.0566596	-0.0395142	0	
-0.0747625	-0.0597473	0	
-0.0959846	-0.084244	0	
-0.120445	-0.112854	0	
-0.147166	-0.144735	0	
-0.17361	-0.177962	0	
-0.195422	-0.209286	0	
-0.206682	-0.234309	0	
-0.200875	-0.248287	0	
-0.172407	-0.247517	0	
-0.117805	-0.230755	0	
-0.0355234	-0.199833	0	
0.0762872	-0.158899	0	
0.222877	-0.112745	0	
0.414646	-0.0657256	0	
0.665663	-0.0216306	0	
1	0	0	
0	0	0	
-0.00762826	-0.00262543	0	
-0.0169086	-0.00971905	0	
-0.0271721	-0.0208104	0	
-0.0386836	-0.0360401	0	
-0.0521704	-0.055882	0	
-0.0684234	-0.0809544	0	
-0.0879454	-0.11178	0	
-0.110568	-0.148433	0	
-0.135025	-0.190047	0	
-0.158546	-0.234272	0	
-0.176654	-0.276878	0	
-0.183428	-0.311847	0	
-0.17233	-0.332258	0	
-0.137331	-0.331972	0	
-0.0734504	-0.307457	0	
0.0240361	-0.259097	0	
0.162097	-0.191251	0	
0.35249	-0.111985	0	
0.613111	-0.04071	0	
1	0	0	
0	0	0	
-0.00333392	-0.00178003	0	
-0.00883427	-0.00696966	0	
-0.0152565	-0.0156412	0	
-0.0225012	-0.028148	0	
-0.0310447	-0.0450966	0	
-0.0415502	-0.0673297	0	
-0.054616	-0.0958317	0	
-0.0705432	-0.131505	0	
-0.0890674	-0.174776	0	
-0.109038	-0.225023	0	
-0.128091	-0.279883	0	
-0.142455	-0.334617	0	
-0.14702	-0.381878	0	
-0.135664	-0.41208	0	
-0.101402	-0.414769	0	
-0.0357119	-0.380295	0	
0.074333	-0.303595	0	
0.249927	-0.190376	0	
0.53377	-0.0581976	0	
1	0	0	
0	0	0	
-0.000743982	-0.000746204	0	
-0.0033257	-0.00358141	0	
-0.00649222	-0.00905058	0	
-0.0100181	-0.0175464	0	
-0.0141482	-0.0295708	0	
-0.0192912	-0.0458784	0	
-0.0258744	-0.0675051	0	
-0.0342438	-0.0956902	0	
-0.0445665	-0.131679	0	
-0.0566754	-0.176379	0	
-0.0699162	-0.229834	0	
-0.0828779	-0.290544	0	
-0.0933866	-0.354634	0	
-0.0980699	-0.415197	0	
-0.0928356	-0.461167	0	
-0.070042	-0.477023	0	
-0.0174684	-0.439268	0	
0.10617	-0.318769	0	
0.363545	-0.147959	0	
1	0	0	
0	0	0	
0.000102087	9.02978e-005	0	
-0.000600005	-0.000664399	0	
-0.00148834	-0.00295007	0	
-0.00243274	-0.00698225	0	
-0.00351618	-0.012985	0	
-0.00487444	-0.0213713	0	
-0.00665516	-0.0328023	0	
-0.00900755	-0.0481887	0	
-0.0120343	-0.068635	0	
-0.0158417	-0.095357	0	
-0.0203367	-0.129474	0	
-0.0255301	-0.1718	0	
-0.0307407	-0.222319	0	
-0.036142	-0.280017	0	
-0.0395641	-0.341537	0	
-0.042869	-0.402387	0	
-0.0382405	-0.446629	0	
-0.0233956	-0.462853	0	
0.124615	-0.228565	0	
1	0	0	
0	0	0	
0	0	0	
0	0	0	
0	0	0	
0	0	0	
0	0	0	
0	0	0	
0	0	0	
0	0	0	
0	0	0	
0	0	0	
0	0	0	
0	0	0	
0	0	0	
0	0	0	
0	0	0	
0	0	0	
0	0	0	
0	0	0	
0	0	0	
1	0	0	
0	0	0	
-2.24863e-006	8.03392e-005	0	
-8.38609e-005	3.07527e-006	0	
0	0	0	
-0.000906905	0.00108901	0	
-0.000362123	0.000859089	0	
0	0	0	
-0.00204679	0.00404344	0	
-0.0006824	0.00294382	0	
0	0	0	
-0.00312887	0.00900137	0	
-0.00095719	0.00615312	0	
0	0	0	
-0.00407098	0.015804	0	
-0.00119337	0.010352	0	
0	0	0	
-0.00484998	0.0241851	0	
-0.00137929	0.0153601	0	
0	0	0	
-0.00543159	0.0338211	0	
-0.00150515	0.0209775	0	
0	0	0	
-0.00578816	0.0443308	0	
-0.001571	0.0269578	0	
0	0	0	
-0.00589145	0.0552751	0	
-0.00155473	0.0330569	0	
0	0	0	
-0.00576379	0.066218	0	
-0.00151047	0.0389878	0	
0	0	0	
-0.00542717	0.0767274	0	
-0.00136057	0.0446379	0	
0	0	0	
-0.0050848	0.0866242	0	
-0.00139051	0.0497774	0	
0	0	0	
-0.00480878	0.0958041	0	
-0.00116408	0.0550131	0	
0	0	0	
-0.00538412	0.105209	0	
-0.00204642	0.0600995	0	
0	0	0	
-0.00671267	0.115468	0	
-0.00165262	0.0685754	0	
0	0	0	
-0.0119044	0.13136	0	
-0.0066337	0.0787565	0	
0	0	0	
-0.0192625	0.153166	0	
-0.00533974	0.107059	0	
0	0	0	
-0.0402449	0.196438	0	
-0.0272189	0.141572	0	
0	0	0	
-0.0509946	0.218482	0	
-0.0136882	0.242374	0	
0	0	0	
0.256887	0.0724667	0	
1	0	0	
0	0	0	
0	0	0	
-0.000804695	0.000322051	0	
-0.00108105	0.000863008	0	
-0.00397062	0.00306516	0	
-0.00330826	0.00395036	0	
-0.00767639	0.00871634	0	
-0.00559419	0.00960791	0	
-0.0112308	0.0173144	0	
-0.007679	0.017765	0	
-0.0143848	0.0286508	0	
-0.00946341	0.0281572	0	
-0.0170112	0.0423769	0	
-0.0108829	0.0404168	0	
-0.0189966	0.058033	0	
-0.0118697	0.0540912	0	
-0.0202316	0.0750593	0	
-0.0123643	0.0686527	0	
-0.0206419	0.0928129	0	
-0.0123482	0.0835194	0	
-0.0202351	0.110599	0	
-0.0118677	0.0981196	0	
-0.0191632	0.127765	0	
-0.0111054	0.111972	0	
-0.0177877	0.143776	0	
-0.0103676	0.124867	0	
-0.0167709	0.158474	0	
-0.0103128	0.136971	0	
-0.017186	0.172007	0	
-0.0117693	0.149294	0	
-0.0206912	0.185523	0	
-0.0166148	0.163442	0	
-0.0294402	0.199572	0	
-0.0268064	0.182818	0	
-0.0450327	0.215397	0	
-0.0439053	0.207539	0	
-0.0573405	0.220868	0	
-0.0637067	0.22777	0	
-0.000694398	0.180101	0	
0.0868968	0.132525	0	
0.486433	0.0535371	0	
1	0	0	
0	0	0	
-0.00258669	0.000544547	0	
-0.00379162	0.00176748	0	
-0.00907265	0.00462601	0	
-0.00892989	0.00690186	0	
-0.0160299	0.0123094	0	
-0.0141518	0.01529	0	
-0.0226678	0.0233461	0	
-0.018958	0.0267711	0	
-0.028605	0.0374671	0	
-0.0231164	0.0410453	0	
-0.0335951	0.0543063	0	
-0.0264546	0.0576906	0	
-0.0374099	0.0733826	0	
-0.0288054	0.0761692	0	
-0.0398272	0.0940882	0	
-0.0300234	0.0958307	0	
-0.0406772	0.115686	0	
-0.0300381	0.115933	0	
-0.0399227	0.137336	0	
-0.0289285	0.135689	0	
-0.0377579	0.15815	0	
-0.0270027	0.154363	0	
-0.0347082	0.17729	0	
-0.0249008	0.171378	0	
-0.0317311	0.194046	0	
-0.0236688	0.186467	0	
-0.0302602	0.207943	0	
-0.0249102	0.19969	0	
-0.0321458	0.218447	0	
-0.030587	0.211279	0	
-0.0386249	0.224551	0	
-0.0418952	0.220327	0	
-0.0465818	0.221898	0	
-0.0534414	0.220637	0	
-0.031874	0.198759	0	
-0.020844	0.190578	0	
0.0984833	0.131517	0	
0.212169	0.103979	0	
0.579285	0.0180266	0	
1	0	0	
0	0	0	
-0.0050009	0.000663158	0	
-0.00786472	0.00237953	0	
-0.0155822	0.00553618	0	
-0.0165856	0.00890354	0	
-0.0261421	0.0143884	0	
-0.0251523	0.0190448	0	
-0.0360699	0.0267326	0	
-0.0330359	0.0324832	0	
-0.0449744	0.0422261	0	
-0.0399072	0.0488918	0	
-0.0525259	0.0605204	0	
-0.0454804	0.0678615	0	
-0.0583732	0.0811756	0	
-0.049461	0.0888601	0	
-0.0621449	0.103605	0	
-0.0515736	0.111207	0	
-0.0635168	0.127041	0	
-0.0516412	0.13407	0	
-0.0623261	0.150529	0	
-0.0496933	0.156494	0	
-0.0587043	0.172968	0	
-0.0460841	0.17746	0	
-0.0532004	0.193167	0	
-0.0415928	0.195974	0	
-0.0468507	0.209918	0	
-0.0374845	0.211112	0	
-0.0411208	0.221967	0	
-0.0354064	0.221952	0	
-0.0374546	0.227831	0	
-0.0367457	0.227138	0	
-0.0356184	0.225021	0	
-0.0400909	0.223632	0	
-0.0280072	0.208733	0	
-0.0313113	0.204138	0	
0.0169561	0.169514	0	
0.0417861	0.153842	0	
0.191513	0.0962776	0	
0.335022	0.0588256	0	
0.657148	0.0190642	0	
1	0	0	
0	0	0	
-0.0077224	0.000705971	0	
-0.0127494	0.00266848	0	
-0.0227655	0.0058311	0	
-0.0254209	0.00985223	0	
-0.0370302	0.0150038	0	
-0.037466	0.0207622	0	
-0.0502365	0.0276019	0	
-0.0484935	0.0349609	0	
-0.0621011	0.0432633	0	
-0.0581652	0.0521217	0	
-0.0722677	0.061701	0	
-0.0661033	0.0718934	0	
-0.0802649	0.0825666	0	
-0.0718656	0.0938056	0	
-0.0855318	0.105345	0	
-0.0749935	0.1172	0	
-0.0875157	0.129275	0	
-0.0751228	0.141193	0	
-0.0858269	0.153319	0	
-0.0721312	0.164675	0	
-0.0804168	0.176172	0	
-0.0662878	0.186358	0	
-0.0717241	0.196327	0	
-0.0583555	0.204842	0	
-0.0607191	0.212145	0	
-0.049576	0.218648	0	
-0.0487229	0.221865	0	
-0.0413698	0.226141	0	
-0.0367055	0.22345	0	
-0.0342602	0.225162	0	
-0.0231087	0.214171	0	
-0.0243189	0.212236	0	
0.00230392	0.18979	0	
0.00654086	0.181203	0	
0.073689	0.144489	0	
0.115664	0.124008	0	
0.27225	0.0771633	0	
0.418081	0.0482334	0	
0.703366	0.0101665	0	
1	0	0	
0	0	0	
-0.0104657	0.000680666	0	
-0.0178995	0.00268726	0	
-0.0299353	0.00559139	0	
-0.0345852	0.00984929	0	
-0.0477609	0.0142944	0	
-0.0500368	0.0205985	0	
-0.0640777	0.0261619	0	
-0.0641205	0.0344723	0	
-0.0787976	0.0408966	0	
-0.0765692	0.0512044	0	
-0.091588	0.0583364	0	
-0.0869428	0.0705546	0	
-0.10186	0.0782813	0	
-0.0946305	0.0921664	0	
-0.108817	0.10034	0	
-0.0989276	0.11545	0	
-0.111593	0.123808	0	
-0.099187	0.139502	0	
-0.109458	0.147593	0	
-0.0950205	0.163088	0	
-0.102068	0.170224	0	
-0.0864942	0.184674	0	
-0.0896541	0.189923	0	
-0.0742428	0.202522	0	
-0.0730594	0.204727	0	
-0.0593967	0.214757	0	
-0.0534728	0.212568	0	
-0.0431252	0.21936	0	
-0.0315303	0.211239	0	
-0.0252475	0.213972	0	
-0.00490213	0.19817	0	
-0.000442553	0.195437	0	
0.0378767	0.170143	0	
0.0515796	0.15955	0	
0.130264	0.123993	0	
0.183256	0.103214	0	
0.341523	0.0620861	0	
0.488535	0.0347315	0	
0.743616	0.00978787	0	
1	0	0	
0	0	0	
-0.0129911	0.000596816	0	
-0.0228393	0.00246893	0	
-0.0364625	0.00486224	0	
-0.0432822	0.00898832	0	
-0.0574554	0.0123548	0	
-0.0618762	0.018703	0	
-0.0765688	0.0225557	0	
-0.0788171	0.0312311	0	
-0.0939682	0.0353209	0	
-0.0939711	0.0464438	0	
-0.109383	0.050682	0	
-0.106859	0.0642757	0	
-0.122106	0.0686505	0	
-0.116678	0.0845433	0	
-0.131058	0.089024	0	
-0.122406	0.106782	0	
-0.134963	0.111216	0	
-0.123009	0.130121	0	
-0.132638	0.134144	0	
-0.117711	0.153241	0	
-0.123323	0.15622	0	
-0.106275	0.17441	0	
-0.106969	0.175456	0	
-0.0891497	0.191618	0	
-0.0842896	0.189643	0	
-0.0673673	0.202722	0	
-0.0564323	0.196525	0	
-0.0419664	0.205531	0	
-0.0239342	0.193875	0	
-0.0124196	0.197746	0	
0.0158535	0.179413	0	
0.0273168	0.176773	0	
0.0746341	0.150769	0	
0.0974845	0.139848	0	
0.183804	0.106586	0	
0.246154	0.0866082	0	
0.400983	0.0518017	0	
0.543582	0.0293283	0	
0.773141	0.00685797	0	
1	0	0	
0	0	0	
-0.0150697	0.000454849	0	
-0.0271313	0.0020282	0	
-0.0417571	0.00366575	0	
-0.050766	0.0073198	0	
-0.0652825	0.00925176	0	
-0.0720447	0.015172	0	
-0.0867309	0.0169031	0	
-0.0915377	0.0253775	0	
-0.106555	0.0266977	0	
-0.109286	0.038016	0	
-0.124576	0.0389148	0	
-0.124789	0.0532576	0	
-0.139971	0.0538333	0	
-0.137032	0.0711567	0	
-0.15134	0.0715114	0	
-0.144606	0.0914463	0	
-0.156912	0.0915698	0	
-0.145977	0.113368	0	
-0.15492	0.113031	0	
-0.13986	0.135587	0	
-0.144073	0.134282	0	
-0.12561	0.156242	0	
-0.123958	0.153191	0	
-0.103456	0.173113	0	
-0.0951668	0.167358	0	
-0.0743884	0.183857	0	
-0.0589111	0.174379	0	
-0.039479	0.186189	0	
-0.0158333	0.172017	0	
0.00185441	0.177928	0	
0.0366755	0.158215	0	
0.055761	0.156942	0	
0.109965	0.131217	0	
0.141745	0.12157	0	
0.232548	0.0908128	0	
0.301659	0.0732438	0	
0.451949	0.0427142	0	
0.590366	0.0232451	0	
0.798376	0.00597854	0	
1	0	0	
0	0	0	
-0.016481	0.000258124	0	
-0.0303613	0.0013728	0	
-0.0452731	0.00203969	0	
-0.056338	0.00489334	0	
-0.070482	0.00510438	0	
-0.0796588	0.0101227	0	
-0.0936561	0.00942449	0	
-0.101281	0.0170965	0	
-0.115544	0.0153311	0	
-0.121446	0.0261444	0	
-0.136082	0.0233676	0	
-0.139656	0.0377115	0	
-0.154356	0.0341115	0	
-0.154676	0.0521476	0	
-0.168636	0.0479496	0	
-0.164659	0.0694707	0	
-0.176596	0.0648223	0	
-0.16747	0.0891444	0	
-0.175771	0.0840003	0	
-0.161181	0.109942	0	
-0.164193	0.103987	0	
-0.144623	0.12997	0	
-0.140977	0.122619	0	
-0.117749	0.146869	0	
-0.106556	0.137355	0	
-0.0815507	0.158124	0	
-0.062271	0.145628	0	
-0.0372691	0.161342	0	
-0.00902472	0.145116	0	
0.0154956	0.154387	0	
0.055505	0.133842	0	
0.0826415	0.135434	0	
0.141897	0.110403	0	
0.182225	0.1035	0	
0.275506	0.0752835	0	
0.35055	0.0609258	0	
0.494891	0.034623	0	
0.62856	0.0191584	0	
0.817901	0.00444001	0	
1	0	0	
0	0	0	
-0.0170283	1.66323e-005	0	
-0.0321512	0.000528488	0	
-0.0465558	7.91762e-005	0	
-0.0593839	0.00182306	0	
-0.0724318	0.000167536	0	
-0.0839396	0.003804	0	
-0.0965791	0.000567995	0	
-0.107133	0.00677542	0	
-0.120017	0.00184185	0	
-0.129418	0.0113113	0	
-0.142826	0.00475814	0	
-0.150334	0.0181282	0	
-0.16406	0.0101785	0	
-0.168459	0.0279035	0	
-0.181709	0.0188626	0	
-0.181503	0.0410299	0	
-0.192889	0.0311947	0	
-0.186659	0.0573418	0	
-0.194357	0.0468886	0	
-0.181224	0.0759002	0	
-0.183314	0.0647865	0	
-0.163352	0.0949468	0	
-0.158227	0.0828749	0	
-0.13261	0.112087	0	
-0.119251	0.0985581	0	
-0.0899655	0.124652	0	
-0.0678352	0.109084	0	
-0.0369052	0.130077	0	
-0.00522195	0.11192	0	
0.0266258	0.126135	0	
0.0704336	0.104985	0	
0.105986	0.111094	0	
0.168647	0.0869888	0	
0.217494	0.0843682	0	
0.311444	0.0587427	0	
0.391833	0.0487961	0	
0.52974	0.0262472	0	
0.6598	0.0146749	0	
0.833235	0.00327526	0	
1	0	0	
0	0	0	
-0.0165774	-0.000247875	0	
-0.0322095	-0.000443528	0	
-0.0453227	-0.00203834	0	
-0.059452	-0.00166013	0	
-0.0707497	-0.00511929	0	
-0.084305	-0.00331634	0	
-0.0949863	-0.00891639	0	
-0.108356	-0.00486936	0	
-0.119261	-0.0127218	0	
-0.132267	-0.00556768	0	
-0.143832	-0.0156434	0	
-0.155676	-0.00448601	0	
-0.167822	-0.0166157	0	
-0.177064	-0.00063627	0	
-0.189076	-0.0145167	0	
-0.193773	0.00681652	0	
-0.204258	-0.00841643	0	
-0.202326	0.0182474	0	
-0.209347	0.00207016	0	
-0.199145	0.0332556	0	
-0.200575	0.0164374	0	
-0.181516	0.0504812	0	
-0.175516	0.0331257	0	
-0.148409	0.0676858	0	
-0.133791	0.0496757	0	
-0.100631	0.0821066	0	
-0.076792	0.0631661	0	
-0.0398915	0.0909266	0	
-0.00609274	0.0707274	0	
0.0334195	0.0916564	0	
0.0795395	0.0699573	0	
0.123904	0.0824412	0	
0.18831	0.0594258	0	
0.245866	0.0627966	0	
0.338901	0.0399694	0	
0.424882	0.0356457	0	
0.555766	0.0170727	0	
0.683531	0.0102903	0	
0.843378	0.00192143	0	
1	0	0	
0	0	0	
-0.0151014	-0.000502009	0	
-0.0304025	-0.00143877	0	
-0.0415538	-0.00405484	0	
-0.0563548	-0.00519098	0	
-0.0654037	-0.0101407	0	
-0.0804857	-0.0105242	0	
-0.0887443	-0.0179872	0	
-0.104514	-0.0167463	0	
-0.112914	-0.026875	0	
-0.129288	-0.0230545	0	
-0.138376	-0.0359487	0	
-0.154622	-0.028446	0	
-0.16446	-0.0440965	0	
-0.179063	-0.0317146	0	
-0.189096	-0.0499398	0	
-0.199771	-0.0315823	0	
-0.208738	-0.0519888	0	
-0.212734	-0.026989	0	
-0.218749	-0.0489928	0	
-0.213481	-0.0175023	0	
-0.214346	-0.0404285	0	
-0.198235	-0.00369935	0	
-0.19193	-0.0269355	0	
-0.16505	0.0126834	0	
-0.150167	-0.0104466	0	
-0.114255	0.0289724	0	