# vtk DataFile Version 4.1
vtk output
ASCII
DATASET UNSTRUCTURED_GRID

POINTS	1281	float
0	0	0	
0	0.05	0	
0	0.1	0	
0	0.15	0	
0	0.2	0	
0	0.25	0	
0	0.3	0	
0	0.35	0	
0	0.4	0	
0	0.45	0	
0	0.5	0	
0	0.55	0	
0	0.6	0	
0	0.65	0	
0	0.7	0	
0	0.75	0	
0	0.8	0	
0	0.85	0	
0	0.9	0	
0	0.95	0	
0	1	0	
0.05	0	0	
0.05	0.05	0	
0.05	0.1	0	
0.05	0.15	0	
0.05	0.2	0	
0.05	0.25	0	
0.05	0.3	0	
0.05	0.35	0	
0.05	0.4	0	
0.05	0.45	0	
0.05	0.5	0	
0.05	0.55	0	
0.05	0.6	0	
0.05	0.65	0	
0.05	0.7	0	
0.05	0.75	0	
0.05	0.8	0	
0.05	0.85	0	
0.05	0.9	0	
0.05	0.95	0	
0.05	1	0	
0.1	0	0	
0.1	0.05	0	
0.1	0.1	0	
0.1	0.15	0	
0.1	0.2	0	
0.1	0.25	0	
0.1	0.3	0	
0.1	0.35	0	
0.1	0.4	0	
0.1	0.45	0	
0.1	0.5	0	
0.1	0.55	0	
0.1	0.6	0	
0.1	0.65	0	
0.1	0.7	0	
0.1	0.75	0	
0.1	0.8	0	
0.1	0.85	0	
0.1	0.9	0	
0.1	0.95	0	
0.1	1	0	
0.15	0	0	
0.15	0.05	0	
0.15	0.1	0	
0.15	0.15	0	
0.15	0.2	0	
0.15	0.25	0	
0.15	0.3	0	
0.15	0.35	0	
0.15	0.4	0	
0.15	0.45	0	
0.15	0.5	0	
0.15	0.55	0	
0.15	0.6	0	
0.15	0.65	0	
0.15	0.7	0	
0.15	0.75	0	
0.15	0.8	0	
0.15	0.85	0	
0.15	0.9	0	
0.15	0.95	0	
0.15	1	0	
0.2	0	0	
0.2	0.05	0	
0.2	0.1	0	
0.2	0.15	0	
0.2	0.2	0	
0.2	0.25	0	
0.2	0.3	0	
0.2	0.35	0	
0.2	0.4	0	
0.2	0.45	0	
0.2	0.5	0	
0.2	0.55	0	
0.2	0.6	0	
0.2	0.65	0	
0.2	0.7	0	
0.2	0.75	0	
0.2	0.8	0	
0.2	0.85	0	
0.2	0.9	0	
0.2	0.95	0	
0.2	1	0	
0.25	0	0	
0.25	0.05	0	
0.25	0.1	0	
0.25	0.15	0	
0.25	0.2	0	
0.25	0.25	0	
0.25	0.3	0	
0.25	0.35	0	
0.25	0.4	0	
0.25	0.45	0	
0.25	0.5	0	
0.25	0.55	0	
0.25	0.6	0	
0.25	0.65	0	
0.25	0.7	0	
0.25	0.75	0	
0.25	0.8	0	
0.25	0.85	0	
0.25	0.9	0	
0.25	0.95	0	
0.25	1	0	
0.3	0	0	
0.3	0.05	0	
0.3	0.1	0	
0.3	0.15	0	
0.3	0.2	0	
0.3	0.25	0	
0.3	0.3	0	
0.3	0.35	0	
0.3	0.4	0	
0.3	0.45	0	
0.3	0.5	0	
0.3	0.55	0	
0.3	0.6	0	
0.3	0.65	0	
0.3	0.7	0	
0.3	0.75	0	
0.3	0.8	0	
0.3	0.85	0	
0.3	0.9	0	
0.3	0.95	0	
0.3	1	0	
0.35	0	0	
0.35	0.05	0	
0.35	0.1	0	
0.35	0.15	0	
0.35	0.2	0	
0.35	0.25	0	
0.35	0.3	0	
0.35	0.35	0	
0.35	0.4	0	
0.35	0.45	0	
0.35	0.5	0	
0.35	0.55	0	
0.35	0.6	0	
0.35	0.65	0	
0.35	0.7	0	
0.35	0.75	0	
0.35	0.8	0	
0.35	0.85	0	
0.35	0.9	0	
0.35	0.95	0	
0.35	1	0	
0.4	0	0	
0.4	0.05	0	
0.4	0.1	0	
0.4	0.15	0	
0.4	0.2	0	
0.4	0.25	0	
0.4	0.3	0	
0.4	0.35	0	
0.4	0.4	0	
0.4	0.45	0	
0.4	0.5	0	
0.4	0.55	0	
0.4	0.6	0	
0.4	0.65	0	
0.4	0.7	0	
0.4	0.75	0	
0.4	0.8	0	
0.4	0.85	0	
0.4	0.9	0	
0.4	0.95	0	
0.4	1	0	
0.45	0	0	
0.45	0.05	0	
0.45	0.1	0	
0.45	0.15	0	
0.45	0.2	0	
0.45	0.25	0	
0.45	0.3	0	
0.45	0.35	0	
0.45	0.4	0	
0.45	0.45	0	
0.45	0.5	0	
0.45	0.55	0	
0.45	0.6	0	
0.45	0.65	0	
0.45	0.7	0	
0.45	0.75	0	
0.45	0.8	0	
0.45	0.85	0	
0.45	0.9	0	
0.45	0.95	0	
0.45	1	0	
0.5	0	0	
0.5	0.05	0	
0.5	0.1	0	
0.5	0.15	0	
0.5	0.2	0	
0.5	0.25	0	
0.5	0.3	0	
0.5	0.35	0	
0.5	0.4	0	
0.5	0.45	0	
0.5	0.5	0	
0.5	0.55	0	
0.5	0.6	0	
0.5	0.65	0	
0.5	0.7	0	
0.5	0.75	0	
0.5	0.8	0	
0.5	0.85	0	
0.5	0.9	0	
0.5	0.95	0	
0.5	1	0	
0.55	0	0	
0.55	0.05	0	
0.55	0.1	0	
0.55	0.15	0	
0.55	0.2	0	
0.55	0.25	0	
0.55	0.3	0	
0.55	0.35	0	
0.55	0.4	0	
0.55	0.45	0	
0.55	0.5	0	
0.55	0.55	0	
0.55	0.6	0	
0.55	0.65	0	
0.55	0.7	0	
0.55	0.75	0	
0.55	0.8	0	
0.55	0.85	0	
0.55	0.9	0	
0.55	0.95	0	
0.55	1	0	
0.6	0	0	
0.6	0.05	0	
0.6	0.1	0	
0.6	0.15	0	
0.6	0.2	0	
0.6	0.25	0	
0.6	0.3	0	
0.6	0.35	0	
0.6	0.4	0	
0.6	0.45	0	
0.6	0.5	0	
0.6	0.55	0	
0.6	0.6	0	
0.6	0.65	0	
0.6	0.7	0	
0.6	0.75	0	
0.6	0.8	0	
0.6	0.85	0	
0.6	0.9	0	
0.6	0.95	0	
0.6	1	0	
0.65	0	0	
0.65	0.05	0	
0.65	0.1	0	
0.65	0.15	0	
0.65	0.2	0	
0.65	0.25	0	
0.65	0.3	0	
0.65	0.35	0	
0.65	0.4	0	
0.65	0.45	0	
0.65	0.5	0	
0.65	0.55	0	
0.65	0.6	0	
0.65	0.65	0	
0.65	0.7	0	
0.65	0.75	0	
0.65	0.8	0	
0.65	0.85	0	
0.65	0.9	0	
0.65	0.95	0	
0.65	1	0	
0.7	0	0	
0.7	0.05	0	
0.7	0.1	0	
0.7	0.15	0	
0.7	0.2	0	
0.7	0.25	0	
0.7	0.3	0	
0.7	0.35	0	
0.7	0.4	0	
0.7	0.45	0	
0.7	0.5	0	
0.7	0.55	0	
0.7	0.6	0	
0.7	0.65	0	
0.7	0.7	0	
0.7	0.75	0	
0.7	0.8	0	
0.7	0.85	0	
0.7	0.9	0	
0.7	0.95	0	
0.7	1	0	
0.75	0	0	
0.75	0.05	0	
0.75	0.1	0	
0.75	0.15	0	
0.75	0.2	0	
0.75	0.25	0	
0.75	0.3	0	
0.75	0.35	0	
0.75	0.4	0	
0.75	0.45	0	
0.75	0.5	0	
0.75	0.55	0	
0.75	0.6	0	
0.75	0.65	0	
0.75	0.7	0	
0.75	0.75	0	
0.75	0.8	0	
0.75	0.85	0	
0.75	0.9	0	
0.75	0.95	0	
0.75	1	0	
0.8	0	0	
0.8	0.05	0	
0.8	0.1	0	
0.8	0.15	0	
0.8	0.2	0	
0.8	0.25	0	
0.8	0.3	0	
0.8	0.35	0	
0.8	0.4	0	
0.8	0.45	0	
0.8	0.5	0	
0.8	0.55	0	
0.8	0.6	0	
0.8	0.65	0	
0.8	0.7	0	
0.8	0.75	0	
0.8	0.8	0	
0.8	0.85	0	
0.8	0.9	0	
0.8	0.95	0	
0.8	1	0	
0.85	0	0	
0.85	0.05	0	
0.85	0.1	0	
0.85	0.15	0	
0.85	0.2	0	
0.85	0.25	0	
0.85	0.3	0	
0.85	0.35	0	
0.85	0.4	0	
0.85	0.45	0	
0.85	0.5	0	
0.85	0.55	0	
0.85	0.6	0	
0.85	0.65	0	
0.85	0.7	0	
0.85	0.75	0	
0.85	0.8	0	
0.85	0.85	0	
0.85	0.9	0	
0.85	0.95	0	
0.85	1	0	
0.9	0	0	
0.9	0.05	0	
0.9	0.1	0	
0.9	0.15	0	
0.9	0.2	0	
0.9	0.25	0	
0.9	0.3	0	
0.9	0.35	0	
0.9	0.4	0	
0.9	0.45	0	
0.9	0.5	0	
0.9	0.55	0	
0.9	0.6	0	
0.9	0.65	0	
0.9	0.7	0	
0.9	0.75	0	
0.9	0.8	0	
0.9	0.85	0	
0.9	0.9	0	
0.9	0.95	0	
0.9	1	0	
0.95	0	0	
0.95	0.05	0	
0.95	0.1	0	
0.95	0.15	0	
0.95	0.2	0	
0.95	0.25	0	
0.95	0.3	0	
0.95	0.35	0	
0.95	0.4	0	
0.95	0.45	0	
0.95	0.5	0	
0.95	0.55	0	
0.95	0.6	0	
0.95	0.65	0	
0.95	0.7	0	
0.95	0.75	0	
0.95	0.8	0	
0.95	0.85	0	
0.95	0.9	0	
0.95	0.95	0	
0.95	1	0	
1	0	0	
1	0.05	0	
1	0.1	0	
1	0.15	0	
1	0.2	0	
1	0.25	0	
1	0.3	0	
1	0.35	0	
1	0.4	0	
1	0.45	0	
1	0.5	0	
1	0.55	0	
1	0.6	0	
1	0.65	0	
1	0.7	0	
1	0.75	0	
1	0.8	0	
1	0.85	0	
1	0.9	0	
1	0.95	0	
1	1	0	
0.025	0	0	
0.05	0.025	0	
0.025	0.05	0	
0	0.025	0	
0.05	0.075	0	
0.025	0.1	0	
0	0.075	0	
0.05	0.125	0	
0.025	0.15	0	
0	0.125	0	
0.05	0.175	0	
0.025	0.2	0	
0	0.175	0	
0.05	0.225	0	
0.025	0.25	0	
0	0.225	0	
0.05	0.275	0	
0.025	0.3	0	
0	0.275	0	
0.05	0.325	0	
0.025	0.35	0	
0	0.325	0	
0.05	0.375	0	
0.025	0.4	0	
0	0.375	0	
0.05	0.425	0	
0.025	0.45	0	
0	0.425	0	
0.05	0.475	0	
0.025	0.5	0	
0	0.475	0	
0.05	0.525	0	
0.025	0.55	0	
0	0.525	0	
0.05	0.575	0	
0.025	0.6	0	
0	0.575	0	
0.05	0.625	0	
0.025	0.65	0	
0	0.625	0	
0.05	0.675	0	
0.025	0.7	0	
0	0.675	0	
0.05	0.725	0	
0.025	0.75	0	
0	0.725	0	
0.05	0.775	0	
0.025	0.8	0	
0	0.775	0	
0.05	0.825	0	
0.025	0.85	0	
0	0.825	0	
0.05	0.875	0	
0.025	0.9	0	
0	0.875	0	
0.05	0.925	0	
0.025	0.95	0	
0	0.925	0	
0.05	0.975	0	
0.025	1	0	
0	0.975	0	
0.075	0	0	
0.1	0.025	0	
0.075	0.05	0	
0.1	0.075	0	
0.075	0.1	0	
0.1	0.125	0	
0.075	0.15	0	
0.1	0.175	0	
0.075	0.2	0	
0.1	0.225	0	
0.075	0.25	0	
0.1	0.275	0	
0.075	0.3	0	
0.1	0.325	0	
0.075	0.35	0	
0.1	0.375	0	
0.075	0.4	0	
0.1	0.425	0	
0.075	0.45	0	
0.1	0.475	0	
0.075	0.5	0	
0.1	0.525	0	
0.075	0.55	0	
0.1	0.575	0	
0.075	0.6	0	
0.1	0.625	0	
0.075	0.65	0	
0.1	0.675	0	
0.075	0.7	0	
0.1	0.725	0	
0.075	0.75	0	
0.1	0.775	0	
0.075	0.8	0	
0.1	0.825	0	
0.075	0.85	0	
0.1	0.875	0	
0.075	0.9	0	
0.1	0.925	0	
0.075	0.95	0	
0.1	0.975	0	
0.075	1	0	
0.125	0	0	
0.15	0.025	0	
0.125	0.05	0	
0.15	0.075	0	
0.125	0.1	0	
0.15	0.125	0	
0.125	0.15	0	
0.15	0.175	0	
0.125	0.2	0	
0.15	0.225	0	
0.125	0.25	0	
0.15	0.275	0	
0.125	0.3	0	
0.15	0.325	0	
0.125	0.35	0	
0.15	0.375	0	
0.125	0.4	0	
0.15	0.425	0	
0.125	0.45	0	
0.15	0.475	0	
0.125	0.5	0	
0.15	0.525	0	
0.125	0.55	0	
0.15	0.575	0	
0.125	0.6	0	
0.15	0.625	0	
0.125	0.65	0	
0.15	0.675	0	
0.125	0.7	0	
0.15	0.725	0	
0.125	0.75	0	
0.15	0.775	0	
0.125	0.8	0	
0.15	0.825	0	
0.125	0.85	0	
0.15	0.875	0	
0.125	0.9	0	
0.15	0.925	0	
0.125	0.95	0	
0.15	0.975	0	
0.125	1	0	
0.175	0	0	
0.2	0.025	0	
0.175	0.05	0	
0.2	0.075	0	
0.175	0.1	0	
0.2	0.125	0	
0.175	0.15	0	
0.2	0.175	0	
0.175	0.2	0	
0.2	0.225	0	
0.175	0.25	0	
0.2	0.275	0	
0.175	0.3	0	
0.2	0.325	0	
0.175	0.35	0	
0.2	0.375	0	
0.175	0.4	0	
0.2	0.425	0	
0.175	0.45	0	
0.2	0.475	0	
0.175	0.5	0	
0.2	0.525	0	
0.175	0.55	0	
0.2	0.575	0	
0.175	0.6	0	
0.2	0.625	0	
0.175	0.65	0	
0.2	0.675	0	
0.175	0.7	0	
0.2	0.725	0	
0.175	0.75	0	
0.2	0.775	0	
0.175	0.8	0	
0.2	0.825	0	
0.175	0.85	0	
0.2	0.875	0	
0.175	0.9	0	
0.2	0.925	0	
0.175	0.95	0	
0.2	0.975	0	
0.175	1	0	
0.225	0	0	
0.25	0.025	0	
0.225	0.05	0	
0.25	0.075	0	
0.225	0.1	0	
0.25	0.125	0	
0.225	0.15	0	
0.25	0.175	0	
0.225	0.2	0	
0.25	0.225	0	
0.225	0.25	0	
0.25	0.275	0	
0.225	0.3	0	
0.25	0.325	0	
0.225	0.35	0	
0.25	0.375	0	
0.225	0.4	0	
0.25	0.425	0	
0.225	0.45	0	
0.25	0.475	0	
0.225	0.5	0	
0.25	0.525	0	
0.225	0.55	0	
0.25	0.575	0	
0.225	0.6	0	
0.25	0.625	0	
0.225	0.65	0	
0.25	0.675	0	
0.225	0.7	0	
0.25	0.725	0	
0.225	0.75	0	
0.25	0.775	0	
0.225	0.8	0	
0.25	0.825	0	
0.225	0.85	0	
0.25	0.875	0	
0.225	0.9	0	
0.25	0.925	0	
0.225	0.95	0	
0.25	0.975	0	
0.225	1	0	
0.275	0	0	
0.3	0.025	0	
0.275	0.05	0	
0.3	0.075	0	
0.275	0.1	0	
0.3	0.125	0	
0.275	0.15	0	
0.3	0.175	0	
0.275	0.2	0	
0.3	0.225	0	
0.275	0.25	0	
0.3	0.275	0	
0.275	0.3	0	
0.3	0.325	0	
0.275	0.35	0	
0.3	0.375	0	
0.275	0.4	0	
0.3	0.425	0	
0.275	0.45	0	
0.3	0.475	0	
0.275	0.5	0	
0.3	0.525	0	
0.275	0.55	0	
0.3	0.575	0	
0.275	0.6	0	
0.3	0.625	0	
0.275	0.65	0	
0.3	0.675	0	
0.275	0.7	0	
0.3	0.725	0	
0.275	0.75	0	
0.3	0.775	0	
0.275	0.8	0	
0.3	0.825	0	
0.275	0.85	0	
0.3	0.875	0	
0.275	0.9	0	
0.3	0.925	0	
0.275	0.95	0	
0.3	0.975	0	
0.275	1	0	
0.325	0	0	
0.35	0.025	0	
0.325	0.05	0	
0.35	0.075	0	
0.325	0.1	0	
0.35	0.125	0	
0.325	0.15	0	
0.35	0.175	0	
0.325	0.2	0	
0.35	0.225	0	
0.325	0.25	0	
0.35	0.275	0	
0.325	0.3	0	
0.35	0.325	0	
0.325	0.35	0	
0.35	0.375	0	
0.325	0.4	0	
0.35	0.425	0	
0.325	0.45	0	
0.35	0.475	0	
0.325	0.5	0	
0.35	0.525	0	
0.325	0.55	0	
0.35	0.575	0	
0.325	0.6	0	
0.35	0.625	0	
0.325	0.65	0	
0.35	0.675	0	
0.325	0.7	0	
0.35	0.725	0	
0.325	0.75	0	
0.35	0.775	0	
0.325	0.8	0	
0.35	0.825	0	
0.325	0.85	0	
0.35	0.875	0	
0.325	0.9	0	
0.35	0.925	0	
0.325	0.95	0	
0.35	0.975	0	
0.325	1	0	
0.375	0	0	
0.4	0.025	0	
0.375	0.05	0	
0.4	0.075	0	
0.375	0.1	0	
0.4	0.125	0	
0.375	0.15	0	
0.4	0.175	0	
0.375	0.2	0	
0.4	0.225	0	
0.375	0.25	0	
0.4	0.275	0	
0.375	0.3	0	
0.4	0.325	0	
0.375	0.35	0	
0.4	0.375	0	
0.375	0.4	0	
0.4	0.425	0	
0.375	0.45	0	
0.4	0.475	0	
0.375	0.5	0	
0.4	0.525	0	
0.375	0.55	0	
0.4	0.575	0	
0.375	0.6	0	
0.4	0.625	0	
0.375	0.65	0	
0.4	0.675	0	
0.375	0.7	0	
0.4	0.725	0	
0.375	0.75	0	
0.4	0.775	0	
0.375	0.8	0	
0.4	0.825	0	
0.375	0.85	0	
0.4	0.875	0	
0.375	0.9	0	
0.4	0.925	0	
0.375	0.95	0	
0.4	0.975	0	
0.375	1	0	
0.425	0	0	
0.45	0.025	0	
0.425	0.05	0	
0.45	0.075	0	
0.425	0.1	0	
0.45	0.125	0	
0.425	0.15	0	
0.45	0.175	0	
0.425	0.2	0	
0.45	0.225	0	
0.425	0.25	0	
0.45	0.275	0	
0.425	0.3	0	
0.45	0.325	0	
[...]
POINT_DATA	1281
VECTORS u float
0	0	0	
0	0	0	
0	0	0	
0	0	0	
0	0	0	
0	0	0	
0	0	0	
0	0	0	
0	0	0	
0	0	0	
0	0	0	
0	0	0	
0	0	0	
0	0	0	
0	0	0	
0	0	0	
0	0	0	
0	0	0	
0	0	0	
0	0	0	
0	0	0	
0	0	0	
-0.000167144	0.000167764	0	
-0.000661724	0.00105159	0	
-0.00117593	0.00286267	0	
-0.00164244	0.00557124	0	
-0.00206397	0.00910543	0	
-0.00246607	0.0134086	0	
-0.00282503	0.0184258	0	
-0.00322228	0.0241444	0	
-0.00349652	0.0304932	0	
-0.00404017	0.0375724	0	
-0.00404533	0.0451745	0	
-0.00547122	0.0539552	0	
-0.00422592	0.0629784	0	
-0.0100831	0.075554	0	
-0.00203073	0.0863907	0	
-0.0299544	0.113006	0	
0.0175017	0.114762	0	
-0.140384	0.232057	0	
0.208258	-0.082024	0	
0.5	0	0	
0	0	0	
-0.00103561	0.000639933	0	
-0.00269251	0.00263055	0	
-0.00439517	0.00602145	0	
-0.00598849	0.0107845	0	
-0.00746604	0.0168483	0	
-0.00884794	0.0241375	0	
-0.0101601	0.0325828	0	
-0.0114014	0.0421155	0	
-0.0126168	0.0526703	0	
-0.0137733	0.0641731	0	
-0.0151038	0.0765866	0	
-0.0164414	0.0898643	0	
-0.0188252	0.104113	0	
-0.0210971	0.119312	0	
-0.027495	0.135518	0	
-0.0302906	0.151115	0	
-0.0459498	0.164107	0	
-0.00339969	0.124058	0	
0.0147296	0.187814	0	
0.5	0	0	
0	0	0	
-0.00271317	0.00105092	0	
-0.00594925	0.00395742	0	
-0.00918023	0.00854212	0	
-0.012235	0.0147138	0	
-0.0150975	0.0223952	0	
-0.0177902	0.0315103	0	
-0.0203299	0.0419765	0	
-0.0227186	0.0536938	0	
-0.024952	0.0665328	0	
-0.0270481	0.0803204	0	
-0.0290656	0.0948297	0	
-0.0311599	0.109744	0	
-0.0335276	0.124618	0	
-0.0364203	0.138601	0	
-0.0394829	0.150219	0	
-0.0405724	0.15558	0	
-0.0309844	0.147833	0	
0.0147014	0.123558	0	
0.181405	0.00974772	0	
0.5	0	0	
0	0	0	
-0.00498124	0.00129615	0	
-0.0100744	0.00476365	0	
-0.0149833	0.0100397	0	
-0.0196163	0.016956	0	
-0.023979	0.0254157	0	
-0.028093	0.0353414	0	
-0.0319568	0.0466434	0	
-0.0355352	0.0591952	0	
-0.0387669	0.072805	0	
-0.0415857	0.087186	0	
-0.043939	0.101911	0	
-0.0457902	0.116355	0	
-0.0470364	0.129559	0	
-0.0472471	0.140055	0	
-0.0448542	0.145318	0	
-0.0353207	0.141452	0	
-0.00653883	0.122465	0	
0.067496	0.0790416	0	
0.223883	0.0468504	0	
0.5	0	0	
0	0	0	
-0.00754128	0.00137542	0	
-0.0146093	0.00500732	0	
-0.0212117	0.0104386	0	
-0.0274002	0.0174462	0	
-0.0332345	0.0259171	0	
-0.0387426	0.0357757	0	
-0.043894	0.0469347	0	
-0.0485909	0.0592541	0	
-0.0526733	0.0724996	0	
-0.0559302	0.0862934	0	
-0.0581066	0.100056	0	
-0.0588664	0.112924	0	
-0.0576653	0.123643	0	
-0.05335	0.130376	0	
-0.0433415	0.130586	0	
-0.0217246	0.120819	0	
0.023377	0.0976789	0	
0.113017	0.0627805	0	
0.273654	0.01225	0	
0.5	0	0	
0	0	0	
-0.0101006	0.00130492	0	
-0.0190887	0.00473151	0	
-0.0272832	0.00980857	0	
-0.0349058	0.0163011	0	
-0.042093	0.0240991	0	
-0.048887	0.0331415	0	
-0.0552232	0.0433581	0	
-0.0609234	0.0546185	0	
-0.0656967	0.0666789	0	
-0.0691429	0.0791224	0	
-0.070745	0.0912909	0	
-0.0698208	0.10221	0	
-0.0653601	0.110503	0	
-0.055654	0.114338	0	
-0.0374798	0.11141	0	
-0.00483996	0.0993214	0	
0.0528667	0.0765472	0	
0.150679	0.0441299	0	
0.301188	0.0175585	0	
0.5	0	0	
0	0	0	
-0.0124009	0.00110887	0	
-0.0230888	0.00400829	0	
-0.0326663	0.00828236	0	
-0.0415259	0.0137276	0	
-0.0498885	0.0202624	0	
-0.0578168	0.027858	0	
-0.0652127	0.0364811	0	
-0.0718102	0.046039	0	
-0.0771708	0.0563209	0	
-0.0806803	0.0669317	0	
-0.0815363	0.0772222	0	
-0.0787005	0.0862218	0	
-0.0707604	0.092596	0	
-0.0556081	0.0946572	0	
-0.0298522	0.0905336	0	
0.0120993	0.0785924	0	
0.0786949	0.05853	0	
0.180408	0.0335351	0	
0.32425	0.00825032	0	
0.5	0	0	
0	0	0	
-0.0142271	0.000810695	0	
-0.0262495	0.00292049	0	
-0.0369072	0.00602212	0	
-0.0467437	0.00998034	0	
-0.056061	0.0147646	0	
-0.0649467	0.0203951	0	
-0.073275	0.0268943	0	
-0.0806964	0.0342354	0	
-0.086626	0.0422842	0	
-0.0902327	0.0507309	0	
-0.0904277	0.0590191	0	
-0.0858342	0.0662856	0	
-0.0746965	0.0713382	0	
-0.0546684	0.072721	0	
-0.0224167	0.0689288	0	
0.026875	0.0589089	0	
0.0997253	0.0428945	0	
0.203004	0.0233794	0	
0.339293	0.00757564	0	
0.5	0	0	
0	0	0	
-0.0154101	0.000435813	0	
-0.0282876	0.00156014	0	
-0.0396468	0.00321397	0	
-0.0501479	0.0053544	0	
-0.0601617	0.00801529	0	
-0.0698034	0.011275	0	
-0.0789316	0.0152231	0	
-0.0871316	0.019921	0	
-0.0936911	0.0253494	0	
-0.0975801	0.0313428	0	
-0.0974411	0.037517	0	
-0.0915817	0.0432059	0	
-0.0779472	0.0474408	0	
-0.0540268	0.0490206	0	
-0.0166608	0.0467401	0	
0.0381891	0.0398287	0	
0.115327	0.0286452	0	
0.219107	0.0154866	0	
0.350149	0.0040008	0	
0.5	0	0	
0	0	0	
-0.0158331	1.3139e-005	0	
-0.0290094	3.38397e-005	0	
-0.0406381	7.46275e-005	0	
-0.0514492	0.000193896	0	
-0.0618629	0.000489993	0	
-0.0720239	0.00109581	0	
-0.0817946	0.0021679	0	
-0.0907259	0.00386451	0	
-0.0980172	0.00630729	0	
-0.102481	0.0095239	0	
-0.102527	0.0133749	0	
-0.0961746	0.0174795	0	
-0.0810846	0.0211731	0	
-0.0545836	0.0235441	0	
-0.0136502	0.0236142	0	
0.0450917	0.020708	0	
0.125142	0.0149738	0	
0.229093	0.00784127	0	
0.356223	0.00211159	0	
0.5	0	0	
0	0	0	
-0.0154399	-0.000422471	0	
-0.0283257	-0.00153244	0	
-0.0397651	-0.00314169	0	
-0.0505006	-0.00509841	0	
-0.0609769	-0.00725436	0	
-0.0713695	-0.00943968	0	
-0.0815686	-0.0114476	0	
-0.0911344	-0.0130327	0	
-0.0992367	-0.0139275	0	
-0.104598	-0.0138826	0	
-0.105459	-0.012733	0	
-0.099592	-0.0104838	0	
-0.0843736	-0.00739311	0	
-0.0569041	-0.00400463	0	
-0.0141572	-0.00106897	0	
0.0468528	0.000703129	0	
0.128739	0.00103139	0	
0.232985	0.000370402	0	
0.358571	8.58452e-005	0	
0.5	0	0	
0	0	0	
-0.0142465	-0.000829904	0	
-0.0262679	-0.0029932	0	
-0.0370623	-0.00614442	0	
-0.0473206	-0.0100626	0	
-0.057483	-0.0145768	0	
-0.0677555	-0.0195106	0	
-0.0780809	-0.02464	0	
-0.088079	-0.0296649	0	
-0.0969659	-0.0341977	0	
-0.10347	-0.0377731	0	
-0.105764	-0.0398922	0	
-0.101455	-0.0401061	0	
-0.0876523	-0.0381365	0	
-0.0611404	-0.0340067	0	
-0.0186449	-0.0281183	0	
0.0428173	-0.0212116	0	
0.125534	-0.0141558	0	
0.230461	-0.00759665	0	
0.356202	-0.00308405	0	
0.5	0	0	
0	0	0	
-0.0123499	-0.00116381	0	
-0.0230006	-0.00419068	0	
-0.0327305	-0.0086212	0	
-0.042115	-0.0142027	0	
-0.0515597	-0.0207762	0	
-0.0612962	-0.0281957	0	
-0.0713393	-0.0362646	0	
-0.081416	-0.0446836	0	
-0.0908701	-0.053006	0	
-0.0985523	-0.0606082	0	
-0.102716	-0.0666881	0	
-0.100948	-0.0703131	0	
-0.0901829	-0.0705472	0	
-0.0668411	-0.0666599	0	
-0.0271366	-0.058419	0	
0.032481	-0.0463363	0	
0.114664	-0.0318238	0	
0.220649	-0.0173496	0	
0.350204	-0.00368472	0	
0.5	0	0	
0	0	0	
-0.00993139	-0.00137876	0	
-0.0188236	-0.0049704	0	
-0.0271401	-0.0102679	0	
-0.0352883	-0.0170317	0	
-0.0436113	-0.0251483	0	
-0.0523553	-0.0345361	0	
-0.0616132	-0.0450721	0	
-0.0712497	-0.0565247	0	
-0.0808028	-0.0684826	0	
-0.0893633	-0.0802808	0	
-0.0954389	-0.090935	0	
-0.0968241	-0.0991145	0	
-0.0905035	-0.103194	0	
-0.0726613	-0.101476	0	
-0.0388123	-0.0925889	0	
0.0156999	-0.0762337	0	
0.0951503	-0.0538987	0	
0.202074	-0.0289042	0	
0.335943	-0.0124165	0	
0.5	0	0	
0	0	0	
-0.00724958	-0.00143649	0	
-0.0141583	-0.00520363	0	
-0.020817	-0.0108326	0	
-0.0274365	-0.0181401	0	
-0.034279	-0.0270794	0	
-0.0415874	-0.0376517	0	
-0.0495196	-0.0498398	0	
-0.0580768	-0.0635402	0	
-0.067019	-0.0784812	0	
-0.0757554	-0.094116	0	
-0.0832078	-0.109498	0	
-0.0876364	-0.123148	0	
-0.086459	-0.13297	0	
-0.0760053	-0.136263	0	
-0.0514139	-0.130142	0	
-0.00639932	-0.112287	0	
0.0658399	-0.0829023	0	
0.172223	-0.0478575	0	
0.319113	-0.00593089	0	
0.5	0	0	
0	0	0	
-0.00461998	-0.00131198	0	
-0.00951169	-0.00481536	0	
-0.0144001	-0.0101704	0	
-0.0193102	-0.0172811	0	
-0.0244193	-0.0261665	0	
-0.0299463	-0.036903	0	
-0.0360793	-0.0495811	0	
-0.0429188	-0.0642543	0	
-0.0504175	-0.0808642	0	
-0.0583054	-0.099133	0	
-0.0659798	-0.118407	0	
-0.0723684	-0.137465	0	
-0.0756839	-0.15424	0	
-0.0731495	-0.165645	0	
-0.0602676	-0.167233	0	
-0.0302452	-0.154099	0	
0.0280659	-0.122142	0	
0.1278	-0.0709309	0	
0.27618	-0.0429814	0	
0.5	0	0	
0	0	0	
-0.0023778	-0.00100662	0	
-0.00541446	-0.00381706	0	
-0.00856996	-0.00830561	0	
-0.0117438	-0.0144637	0	
-0.0150424	-0.0223478	0	
-0.0186384	-0.0320728	0	
-0.0227044	-0.0438025	0	
-0.0273754	-0.0577226	0	
-0.0327162	-0.0739917	0	
-0.0386886	-0.0926558	0	
-0.0450888	-0.113534	0	
-0.0514886	-0.136001	0	
-0.0570583	-0.158779	0	
-0.060402	-0.179303	0	
-0.0588019	-0.193561	0	
-0.0469999	-0.193869	0	
-0.013189	-0.171319	0	
0.0642133	-0.124956	0	
0.24491	0.000879087	0	
0.5	0	0	
0	0	0	
-0.000818356	-0.00055565	0	
-0.0023303	-0.00235471	0	
-0.0039516	-0.00550374	0	
-0.00555844	-0.010043	0	
-0.00721028	-0.0160163	0	
-0.009013	-0.0235242	0	
-0.0110888	-0.0327411	0	
-0.0135238	-0.0439058	0	
-0.0164366	-0.0573021	0	
-0.0197967	-0.0732125	0	
-0.0237945	-0.0918628	0	
-0.0279821	-0.113323	0	
-0.0331117	-0.137316	0	
-0.0369867	-0.163123	0	
-0.0433369	-0.188346	0	
-0.0412345	-0.209319	0	
-0.0468478	-0.215081	0	
0.023466	-0.155532	0	
0.0705968	-0.20398	0	
0.5	0	0	
0	0	0	
-9.51722e-005	-9.84147e-005	0	
-0.000534278	-0.00080891	0	
-0.00101012	-0.00237343	0	
-0.00146378	-0.00480212	0	
-0.00191477	-0.00808887	0	
-0.00241896	-0.0122857	0	
-0.00297688	-0.0174964	0	
-0.00371568	-0.0239249	0	
-0.00447173	-0.0317613	0	
-0.00571675	-0.0414048	0	
-0.00651383	-0.0529519	0	
-0.00903318	-0.0672636	0	
-0.0086314	-0.083651	0	
-0.0157165	-0.104782	0	
-0.00788768	-0.126187	0	
-0.0356171	-0.159897	0	
0.00946836	-0.174217	0	
-0.127993	-0.273099	0	
0.220287	0.0649462	0	
0.5	0	0	
0	0	0	
0	0	0	
0	0	0	
0	0	0	
0	0	0	
0	0	0	
0	0	0	
0	0	0	
0	0	0	
0	0	0	
0	0	0	
0	0	0	
0	0	0	
0	0	0	
0	0	0	
0	0	0	
0	0	0	
0	0	0	
0	0	0	
0	0	0	
0	0	0	
0	0	0	
1.06178e-005	3.40909e-005	0	
-3.37507e-005	-1.06377e-005	0	
0	0	0	
-0.000403486	0.000483726	0	
-0.000160156	0.000364124	0	
0	0	0	
-0.000923265	0.00183228	0	
-0.00030364	0.00129912	0	
0	0	0	
-0.00141537	0.00410205	0	
-0.00042977	0.00273909	0	
0	0	0	
-0.00185674	0.00723254	0	
-0.000539022	0.00464554	0	
0	0	0	
-0.00226895	0.0111609	0	
-0.000654461	0.00696103	0	
0	0	0	
-0.00264479	0.0158201	0	
-0.000731115	0.00970024	0	
0	0	0	
-0.00303047	0.0212048	0	
-0.000880126	0.0127599	0	
0	0	0	
-0.00334675	0.0272104	0	
-0.0008592	0.0163222	0	
0	0	0	
-0.00379315	0.0339888	0	
-0.0012196	0.0199616	0	
0	0	0	
-0.00397284	0.0411707	0	
-0.000750755	0.0246588	0	
0	0	0	
-0.00487169	0.0496653	0	
-0.00220599	0.0283709	0	
0	0	0	
-0.00450845	0.0577626	0	
0.000482088	0.0360563	0	
0	0	0	
-0.00771601	0.0701166	0	
-0.00644095	0.0374446	0	
0	0	0	
-0.0044746	0.0778093	0	
0.00732241	0.0574489	0	
0	0	0	
-0.0186526	0.104536	0	
-0.0257053	0.0431194	0	
0	0	0	
0.000726815	0.10029	0	
0.0369607	0.121861	0	
0	0	0	
-0.0679639	0.190007	0	
-0.095298	0.0213899	0	
0	0	0	
0.0365768	0.089401	0	
0.0260399	0.395309	0	
0	0	0	
-0.145756	-0.0556986	0	
0.5	0	0	
0	0	0	
0	0	0	
-0.000359418	0.000153815	0	
-0.000481224	0.000398947	0	
-0.00183507	0.00146142	0	
-0.00151018	0.00183755	0	
-0.00355283	0.00414761	0	
-0.00255824	0.00447597	0	
-0.00520728	0.00823178	0	
-0.00352899	0.00829143	0	
-0.00674044	0.0136552	0	
-0.00442174	0.0132098	0	
-0.00816734	0.0203399	0	
-0.00525355	0.0191605	0	
-0.00951184	0.028218	0	
-0.00604658	0.0260811	0	
-0.0107881	0.0372102	0	
-0.00679648	0.0339271	0	
-0.0120112	0.0472738	0	
-0.00754917	0.0426406	0	
-0.0131959	0.0582837	0	
-0.00825722	0.0522242	0	
-0.0144111	0.0703028	0	
-0.00915095	0.0626081	0	
-0.0157461	0.0830138	0	
-0.00998068	0.0740399	0	
-0.0174873	0.097057	0	
-0.0118302	0.0863495	0	
-0.0199023	0.111092	0	
-0.0132293	0.100824	0	
-0.0237588	0.128377	0	
-0.0189263	0.116191	0	
-0.0293276	0.14118	0	
-0.0219131	0.137213	0	
-0.0369109	0.163582	0	
-0.0344745	0.153826	0	
-0.0371766	0.148906	0	
-0.0611724	0.172901	0	
0.000229763	0.134554	0	
0.129325	0.0137085	0	
0.334434	0.134734	0	
0.5	0	0	
0	0	0	
-0.00122974	0.000271028	0	
-0.00177577	0.000861717	0	
-0.00430793	0.00228474	0	
-0.00418448	0.00334839	0	
-0.00758076	0.00604402	0	
-0.0066241	0.00739323	0	
-0.0107322	0.0114317	0	
-0.00892306	0.0129425	0	
-0.0136891	0.0183674	0	
-0.0110669	0.0199244	0	
-0.0164636	0.0267757	0	
-0.0130796	0.0282626	0	
-0.0190787	0.0365769	0	
-0.0149809	0.03788	0	
-0.0215428	0.0476839	0	
-0.0167826	0.0486924	0	
-0.0238542	0.0599779	0	
-0.0184908	0.0606026	0	
-0.0260124	0.0733218	0	
-0.020146	0.0734924	0	
-0.0280601	0.0874892	0	
-0.0218129	0.0872341	0	
-0.0300818	0.102278	0	
-0.0237121	0.101661	0	
-0.0323021	0.117173	0	
-0.0260333	0.116616	0	
-0.0348676	0.131911	0	
-0.0294063	0.131673	0	
-0.0380685	0.144619	0	
-0.0336993	0.146059	0	
-0.040414	0.154647	0	
-0.0384073	0.157112	0	
-0.0386679	0.15327	0	
-0.0401877	0.157239	0	
-0.0142227	0.137007	0	
0.00774876	0.129514	0	
0.073299	0.0911066	0	
0.0800717	0.118551	0	
0.269603	-0.0366463	0	
0.5	0	0	
0	0	0	
-0.0024437	0.00033705	0	
-0.0037866	0.0011936	0	
-0.00753688	0.00278632	0	
-0.00792947	0.00443011	0	
-0.0125603	0.00718691	0	
-0.0119905	0.00942707	0	
-0.0173348	0.0132979	0	
-0.0158306	0.0160541	0	
-0.0218299	0.0209958	0	
-0.0194395	0.0242253	0	
-0.0260664	0.0301982	0	
-0.022839	0.0338638	0	
-0.0300575	0.0408252	0	
-0.0260388	0.0448828	0	
-0.0337849	0.0527712	0	
-0.029025	0.0571678	0	
-0.0371979	0.0658822	0	
-0.0317716	0.0705571	0	
-0.0402308	0.0799202	0	
-0.0342595	0.0848195	0	
-0.0428206	0.0945415	0	
-0.0365114	0.0996261	0	
-0.0449296	0.109215	0	
-0.0385884	0.114502	0	
-0.0464977	0.123209	0	
-0.0405983	0.128729	0	
-0.0473373	0.135256	0	
-0.0424154	0.141107	0	
-0.046547	0.14365	0	
-0.0431464	0.149549	0	
-0.0415649	0.144774	0	
-0.0396271	0.149892	0	
-0.0245815	0.134488	0	
-0.0188843	0.136011	0	
0.0219392	0.105231	0	
0.0348375	0.0992456	0	
0.133756	0.0522505	0	
0.220875	0.0121925	0	
0.373819	0.0332465	0	
0.5	0	0	
0	0	0	
-0.00382826	0.000359814	0	
-0.00624205	0.00135399	0	
-0.0111346	0.00294338	0	
-0.0123192	0.00495325	0	
-0.0179659	0.00751408	0	
-0.0180811	0.0103734	0	
-0.0243536	0.0137525	0	
-0.023502	0.0174148	0	
-0.0303589	0.0215021	0	
-0.0286108	0.0259712	0	
-0.0360299	0.0306761	0	
-0.0334313	0.0359648	0	
-0.0413676	0.0411983	0	
-0.0379487	0.047306	0	
-0.0463079	0.0529604	0	
-0.0420991	0.059859	0	
-0.0507208	0.0657804	0	
-0.0457768	0.0734074	0	
-0.0544191	0.0793599	0	
-0.04885	0.0876143	0	
-0.0571713	0.0932274	0	
-0.0511743	0.101968	0	
-0.0586891	0.106677	0	
-0.0525745	0.115712	0	
-0.0585645	0.118658	0	
-0.0527356	0.127709	0	
-0.0560123	0.127675	0	
-0.0508547	0.13628	0	
-0.0493455	0.131503	0	
-0.0448643	0.13877	0	
-0.0345631	0.127246	0	
-0.0290885	0.13155	0	
-0.00328322	0.11109	0	
0.00739638	0.109446	0	
0.0611357	0.0806791	0	
0.0944704	0.0700776	0	
0.183013	0.0417763	0	
0.244025	0.0359662	0	
0.370419	-0.00590505	0	
0.5	0	0	
0	0	0	
-0.00521569	0.000341797	0	
-0.00883834	0.00135583	0	
-0.0147114	0.00278787	0	
-0.0168835	0.00492936	0	
-0.0232695	0.00708092	0	
-0.0243018	0.0102442	0	
-0.0311556	0.0128854	0	
-0.0312278	0.017066	0	
-0.0385492	0.0200399	0	
-0.0377577	0.0252804	0	
-0.045541	0.0284672	0	
-0.0439255	0.0348171	0	
-0.0521212	0.0381082	0	
-0.049684	0.0455951	0	
-0.0581688	0.0488693	0	
-0.054897	0.057476	0	
-0.0634487	0.0605705	0	
-0.0593419	0.0702158	0	
-0.0676153	0.0728894	0	
-0.0627179	0.08341	0	
-0.0702124	0.0852981	0	
-0.0646438	0.0964299	0	
-0.0706524	0.0969896	0	
-0.0646149	0.10834	0	
-0.0681191	0.106801	0	
-0.0618484	0.117804	0	
-0.0613248	0.113126	0	
-0.054901	0.122953	0	
-0.0479279	0.113898	0	
-0.0407766	0.121352	0	
-0.0235376	0.106656	0	
-0.0135682	0.110008	0	
0.0200088	0.0892504	0	
0.0387828	0.0867752	0	
0.0956572	0.0614887	0	
0.131411	0.0527532	0	
0.219301	0.0274497	0	
0.292183	0.0111626	0	
0.401581	0.00915858	0	
0.5	0	0	
0	0	0	
-0.00646527	0.000290941	0	
-0.0112994	0.00121977	0	
-0.0179166	0.00236541	0	
-0.0211733	0.00442011	0	
-0.0279882	0.00598863	0	
-0.0300916	0.00914737	0	
-0.0371689	0.0108645	0	
-0.0383615	0.0151775	0	
-0.0457623	0.0168599	0	
-0.0461615	0.0224116	0	
-0.0539099	0.0239278	0	
-0.0535433	0.0308025	0	
-0.0615947	0.0320439	0	
-0.0604252	0.0402959	0	
-0.0686354	0.0411525	0	
-0.0665853	0.0507768	0	
-0.0746802	0.0511098	0	
-0.0716598	0.0620121	0	
-0.0792034	0.0616214	0	
-0.0751433	0.0735883	0	
-0.0814997	0.0721743	0	
-0.076378	0.0848406	0	
-0.0806589	0.0819659	0	
-0.0745022	0.0947829	0	
-0.0754825	0.089846	0	
-0.0682984	0.102043	0	
-0.064265	0.094296	0	
-0.0558317	0.104849	0	
-0.0443544	0.0934958	0	
-0.0337697	0.101099	0	
-0.0113707	0.0856151	0	
0.00381768	0.088832	0	
0.0416589	0.0694997	0	
0.0661789	0.0671248	0	
0.124605	0.0461089	0	
0.167254	0.0384481	0	
0.247059	0.0210123	0	
0.312142	0.0143788	0	
0.407432	0.000167599	0	
0.5	0	0	
0	0	0	
-0.00745948	0.000213009	0	
-0.0133879	0.000969953	0	
-0.020455	0.00172609	0	
-0.0247948	0.00350389	0	
-0.0317099	0.00435773	0	
-0.0349553	0.00723253	0	
-0.0419049	0.0078967	0	
-0.044339	0.0119829	0	
-0.0514576	0.0122673	0	
-0.0532089	0.0176966	0	
-0.0605615	0.0174709	0	
-0.0616395	0.0243676	0	
-0.069198	0.0235349	0	
-0.0695175	0.0319886	0	
-0.0771311	0.0304641	0	
-0.0765339	0.0404966	0	
-0.0838952	0.0381862	0	
-0.0821757	0.0497138	0	
-0.0887832	0.0464882	0	
-0.0857193	0.05928	0	
-0.0908374	0.0549457	0	
-0.0862182	0.0685821	0	
-0.0888313	0.0628546	0	
-0.0824623	0.0766912	0	
-0.0812162	0.0691853	0	
-0.0728604	0.082333	0	
-0.0659787	0.0725965	0	
-0.0551722	0.083929	0	
-0.0403378	0.0715663	0	
-0.0260049	0.0798021	0	
-0.00027982	0.0647268	0	
0.0198356	0.0686333	0	
0.0599063	0.0515389	0	
0.0899494	0.0504989	0	
0.14721	0.0333333	0	
0.192258	0.0282246	0	
0.267306	0.0141695	0	
0.33326	0.00704205	0	
0.419	0.00292691	0	
0.5	0	0	
0	0	0	
-0.0081064	0.000114851	0	
-0.0149115	0.000630424	0	
-0.0220945	0.000924187	0	
-0.0274248	0.00226771	0	
-0.0341097	0.00232477	0	
-0.0384842	0.00467345	0	
-0.0449763	0.00422155	0	
-0.0486945	0.00775665	0	
-0.0552036	0.00661425	0	
-0.0583947	0.0115181	0	
-0.0650328	0.00956302	0	
-0.0676855	0.0160067	0	
-0.0744521	0.0131564	0	
-0.0764314	0.0212777	0	
-0.0831865	0.0174758	0	
-0.0842471	0.0273464	0	
-0.0906751	0.0225497	0	
-0.0904804	0.0341318	0	
-0.0960488	0.0282949	0	
-0.094197	0.0413895	0	
-0.0981145	0.0344456	0	
-0.0941705	0.0486394	0	
-0.0953487	0.0404827	0	
-0.0888632	0.0551058	0	
-0.0858842	0.0455859	0	
-0.0763667	0.0596984	0	
-0.0674557	0.0486525	0	
-0.0542466	0.061086	0	
-0.0372581	0.048436	0	
-0.0192543	0.057922	0	
0.00828946	0.0438784	0	
0.033045	0.0493291	0	
0.073666	0.0346753	0	
0.108213	0.0356302	0	
0.163738	0.0220403	0	
0.212021	0.0193084	0	
0.281484	0.00934735	0	
0.345005	0.00611357	0	
0.423124	0.000639405	0	
0.5	0	0	
0	0	0	
-0.00834113	3.88874e-006	0	
-0.0157263	0.00022809	0	
-0.022676	2.24082e-005	0	
-0.028823	0.000810125	0	
-0.034965	4.83391e-005	0	
-0.040373	0.00167048	0	
-0.046114	0.000118181	0	
-0.0510752	0.00281691	0	
-0.0566912	0.000310875	0	
-0.0613286	0.00431647	0	
-0.0669777	0.000743014	0	
-0.0712625	0.00627609	0	
-0.0769796	0.00156135	0	
-0.0807348	0.00881998	0	
-0.0864083	0.00292714	0	
-0.0893086	0.0120578	0	
-0.0946437	0.00498654	0	
-0.0962213	0.0160388	0	
-0.100695	0.00782285	0	
-0.100357	0.0206889	0	
-0.103174	0.01139	0	
-0.100237	0.0257377	0	
-0.100292	0.015436	0	
-0.0940187	0.0306505	0	
-0.0898843	0.019439	0	
-0.0795059	0.034599	0	
-0.0694432	0.0225973	0	
-0.0541105	0.0365204	0	
-0.0361248	0.0239305	0	
-0.0147523	0.0353288	0	
0.0132746	0.0225517	0	
0.0422483	0.0303199	0	
0.08226	0.0181301	0	
0.121014	0.0217936	0	
0.174073	0.0114259	0	
0.224823	0.0116144	0	
0.290044	0.00457616	0	
0.353865	0.00285802	0	
0.427182	0.000569643	0	
0.5	0	0	
0	0	0	
-0.00813134	-0.000110716	0	
-0.0157443	-0.000205362	0	
-0.0221251	-0.000904651	0	
-0.0288461	-0.000752972	0	
-0.0341734	-0.00228499	0	
-0.0404377	-0.00154141	0	
-0.0451875	-0.00408647	0	
-0.0512602	-0.00246358	0	
-0.0557546	-0.00616269	0	
-0.06175	-0.00339345	0	
-0.0661843	-0.00835719	0	
-0.0720668	-0.00417656	0	
-0.0765136	-0.0104827	0	
-0.0820839	-0.0046281	0	
-0.0864744	-0.0123123	0	
-0.0913506	-0.00454358	0	
-0.0954397	-0.0135856	0	
-0.0990429	-0.00372726	0	
-0.102362	-0.0140373	0	
-0.103918	-0.00204238	0	
-0.105723	-0.01345	0	
-0.10429	0.000517796	0	
-0.103526	-0.0117325	0	
-0.0980483	0.00374924	0	
-0.0933318	-0.00900833	0	
-0.0827107	0.00717544	0	
-0.0723602	-0.00568143	0	
-0.0555013	0.0100548	0	
-0.0376297	-0.00242055	0	
-0.0134203	0.0115157	0	
0.0138928	3.03326e-007	0	
0.0466699	0.0108758	0	
0.0850642	0.00102962	0	
0.127774	0.00808567	0	
0.178073	0.000763461	0	
0.231837	0.0041473	0	
0.293361	-2.79593e-006	0	
0.357961	0.00119321	0	
0.427283	0.000225833	0	
0.5	0	0	
0	0	0	