# vtk DataFile Version 4.1
vtk output
ASCII
DATASET UNSTRUCTURED_GRID

POINTS	79	float
0	3	0	
0	2.75	0	
0	2.5	0	
0	2.25	0	
0	2	0	
0.75	3	0	
0.75	2.75	0	
0.75	2.5	0	
0.75	2.25	0	
0.75	2	0	
1.5	3	0	
1.5	2.75	0	
1.5	2.5	0	
1.5	2.25	0	
1.5	2	0	
1.75	3	0	
1.75	2.75	0	
1.75	2.5	0	
1.75	2.25	0	
1.75	2	0	
2	3	0	
2	2.75	0	
2	2.5	0	
2	2.25	0	
2	2	0	
2	1.75	0	
2	1.5	0	
2	1.25	0	
2	1	0	
2	0.5	0	
2	0	0	
2.375	3	0	
2.375	2.75	0	
2.375	2.25	0	
2.375	2	0	
2.375	1.75	0	
2.375	1.5	0	
2.375	1.25	0	
2.375	1	0	
2.375	0.5	0	
2.375	0	0	
2.75	3	0	
2.75	2.5	0	
2.75	2	0	
2.75	1.75	0	
2.75	1.5	0	
2.75	1.25	0	
2.75	1	0	
2.75	0.5	0	
2.75	0	0	
3.25	3	0	
3.25	2.5	0	
3.25	2	0	
3.25	1.75	0	
3.25	1.25	0	
3.25	1	0	
3.25	0.5	0	
3.25	0	0	
3.75	3	0	
3.75	2.5	0	
3.75	2	0	
3.75	1.5	0	
3.75	1	0	
3.75	0.5	0	
3.75	0	0	
4.375	3	0	
4.375	2.5	0	
4.375	2	0	
4.375	1.5	0	
4.375	1	0	
4.375	0.5	0	
4.375	0	0	
5	3	0	
5	2.5	0	
5	2	0	
5	1.5	0	
5	1	0	
5	0.5	0	
5	0	0	

CELLS 30	120
3	0	2	12	
3	2	4	14	
3	0	12	10	
3	2	14	12	
3	10	12	22	
3	12	14	24	
3	10	22	20	
3	12	24	22	
3	20	22	41	
3	22	24	43	
3	24	26	45	
3	26	28	47	
3	28	30	49	
3	22	43	41	
3	24	45	43	
3	26	47	45	
3	28	49	47	
3	41	43	60	
3	43	45	60	
3	45	47	62	
3	47	49	64	
3	41	60	58	
3	45	62	60	
3	47	64	62	
3	58	60	74	
3	60	62	76	
3	62	64	78	
3	58	74	72	
3	60	76	74	
3	62	78	76	

CELL_TYPES	30
5
5
5
5
5
5
5
5
5
5
5
5
5
5
5
5
5
5
5
5
5
5
5
5
5
5
5
5
5
5

POINT_DATA	79
VECTORS u float
-0.0436269	0.0553496	0	
37.3795	-0.000661558	0	
49.8829	-0.000317273	0	
37.3796	0.00297581	0	
-0.0204856	-0.0523915	0	
0.0321754	0.0397891	0	
37.2768	-0.072382	0	
49.6873	-0.170377	0	
37.3603	-0.104919	0	
0.0321422	-0.038468	0	
0.015161	0.00623908	0	
36.2714	-0.513266	0	
49.186	-0.502655	0	
38.2021	-0.339473	0	
0.0236751	-0.00517416	0	
0.0130848	0.00195642	0	
36.1096	-0.388471	0	
50.0627	-0.897083	0	
39.8137	-1.32272	0	
0.0160079	0.00473159	0	
0.0101968	-0.00357515	0	
33.7537	-1.0759	0	
51.1923	-2.15601	0	
37.2077	-3.58504	0	
0.014797	0.00110263	0	
0.0136235	0.00257329	0	
0.00654536	0.00109996	0	
0.00889298	0.00165818	0	
0.00720801	0.00110792	0	
0.0132685	0.000390273	0	
0.00800657	0.00689078	0	
0.019964	-0.00570745	0	
33.1302	0.0600918	0	
40.1792	-5.47137	0	
13.52	-3.12253	0	
1.88631	3.17621	0	
-0.579665	4.60132	0	
-0.762313	3.87383	0	
-0.625148	2.85099	0	
-0.516113	0.735589	0	
0.000193773	0.0128294	0	
0.0130995	-0.00367619	0	
40.9153	-5.08722	0	
22.6635	-5.26132	0	
7.51455	-0.592789	0	
0.0783004	2.83779	0	
-1.50061	3.34778	0	
-2.39731	3.18252	0	
-2.60647	1.21563	0	
-0.000796929	0.0100623	0	
0.011892	-0.0110107	0	
35.534	-4.79473	0	
27.2225	-5.72766	0	
14.4464	-2.52154	0	
0.43347	1.65925	0	
-2.31332	2.46802	0	
-4.50666	1.84801	0	
-0.00300337	0.0149525	0	
0.00891923	-0.0111264	0	
31.5719	-4.43492	0	
31.9139	-7.18343	0	
9.94756	-2.83636	0	
-1.19345	-0.229712	0	
-5.5888	1.0591	0	
-0.00243782	0.00930429	0	
0.00602512	-0.0118714	0	
22.9052	-3.59917	0	
30.4435	-5.40777	0	
15.4083	-4.51869	0	
1.90828	-3.62082	0	
-5.67917	-1.98687	0	
-0.00523945	0.00600089	0	
0.00324507	0.00156747	0	
18.2403	-0.674122	0	
29.1788	-5.47319	0	
18.5292	-7.43915	0	
5.35704	-7.95365	0	
-3.53714	-5.76081	0	
-0.00518567	-0.00362812	0	
SCALARS p float
LOOKUP_TABLE default
707.675
0
712.588
0
723.047
0
0
0
0
0
142.97
0
126.344
0
106.803
0
0
0
0
0
-38.2297
0
-48.6711
0
-219.735
0
-137.846
0
-101.357
0
-105.85
0
0
0
0
0
0
0
0
0
0
-26.3926
0
-121.147
0
-122.403
0
-115.877
0
-114.836
0
0
0
0
0
0
0
0
-104.491
0
-98.3536
0
-112.756
0
-76.2644
0
0
0
0
0
0
0
-0.000138043
0
-7.49681e-005
0
-0.00230852
0
0.00174144
