# vtk DataFile Version 4.1
vtk output
ASCII
DATASET UNSTRUCTURED_GRID

POINTS	1281	float
0	0	0	
0	0.05	0	
0	0.1	0	
0	0.15	0	
0	0.2	0	
0	0.25	0	
0	0.3	0	
0	0.35	0	
0	0.4	0	
0	0.45	0	
0	0.5	0	
0	0.55	0	
0	0.6	0	
0	0.65	0	
0	0.7	0	
0	0.75	0	
0	0.8	0	
0	0.85	0	
0	0.9	0	
0	0.95	0	
0	1	0	
0.05	0	0	
0.05	0.05	0	
0.05	0.1	0	
0.05	0.15	0	
0.05	0.2	0	
0.05	0.25	0	
0.05	0.3	0	
0.05	0.35	0	
0.05	0.4	0	
0.05	0.45	0	
0.05	0.5	0	
0.05	0.55	0	
0.05	0.6	0	
0.05	0.65	0	
0.05	0.7	0	
0.05	0.75	0	
0.05	0.8	0	
0.05	0.85	0	
0.05	0.9	0	
0.05	0.95	0	
0.05	1	0	
0.1	0	0	
0.1	0.05	0	
0.1	0.1	0	
0.1	0.15	0	
0.1	0.2	0	
0.1	0.25	0	
0.1	0.3	0	
0.1	0.35	0	
0.1	0.4	0	
0.1	0.45	0	
0.1	0.5	0	
0.1	0.55	0	
0.1	0.6	0	
0.1	0.65	0	
0.1	0.7	0	
0.1	0.75	0	
0.1	0.8	0	
0.1	0.85	0	
0.1	0.9	0	
0.1	0.95	0	
0.1	1	0	
0.15	0	0	
0.15	0.05	0	
0.15	0.1	0	
0.15	0.15	0	
0.15	0.2	0	
0.15	0.25	0	
0.15	0.3	0	
0.15	0.35	0	
0.15	0.4	0	
0.15	0.45	0	
0.15	0.5	0	
0.15	0.55	0	
0.15	0.6	0	
0.15	0.65	0	
0.15	0.7	0	
0.15	0.75	0	
0.15	0.8	0	
0.15	0.85	0	
0.15	0.9	0	
0.15	0.95	0	
0.15	1	0	
0.2	0	0	
0.2	0.05	0	
0.2	0.1	0	
0.2	0.15	0	
0.2	0.2	0	
0.2	0.25	0	
0.2	0.3	0	
0.2	0.35	0	
0.2	0.4	0	
0.2	0.45	0	
0.2	0.5	0	
0.2	0.55	0	
0.2	0.6	0	
0.2	0.65	0	
0.2	0.7	0	
0.2	0.75	0	
0.2	0.8	0	
0.2	0.85	0	
0.2	0.9	0	
0.2	0.95	0	
0.2	1	0	
0.25	0	0	
0.25	0.05	0	
0.25	0.1	0	
0.25	0.15	0	
0.25	0.2	0	
0.25	0.25	0	
0.25	0.3	0	
0.25	0.35	0	
0.25	0.4	0	
0.25	0.45	0	
0.25	0.5	0	
0.25	0.55	0	
0.25	0.6	0	
0.25	0.65	0	
0.25	0.7	0	
0.25	0.75	0	
0.25	0.8	0	
0.25	0.85	0	
0.25	0.9	0	
0.25	0.95	0	
0.25	1	0	
0.3	0	0	
0.3	0.05	0	
0.3	0.1	0	
0.3	0.15	0	
0.3	0.2	0	
0.3	0.25	0	
0.3	0.3	0	
0.3	0.35	0	
0.3	0.4	0	
0.3	0.45	0	
0.3	0.5	0	
0.3	0.55	0	
0.3	0.6	0	
0.3	0.65	0	
0.3	0.7	0	
0.3	0.75	0	
0.3	0.8	0	
0.3	0.85	0	
0.3	0.9	0	
0.3	0.95	0	
0.3	1	0	
0.35	0	0	
0.35	0.05	0	
0.35	0.1	0	
0.35	0.15	0	
0.35	0.2	0	
0.35	0.25	0	
0.35	0.3	0	
0.35	0.35	0	
0.35	0.4	0	
0.35	0.45	0	
0.35	0.5	0	
0.35	0.55	0	
0.35	0.6	0	
0.35	0.65	0	
0.35	0.7	0	
0.35	0.75	0	
0.35	0.8	0	
0.35	0.85	0	
0.35	0.9	0	
0.35	0.95	0	
0.35	1	0	
0.4	0	0	
0.4	0.05	0	
0.4	0.1	0	
0.4	0.15	0	
0.4	0.2	0	
0.4	0.25	0	
0.4	0.3	0	
0.4	0.35	0	
0.4	0.4	0	
0.4	0.45	0	
0.4	0.5	0	
0.4	0.55	0	
0.4	0.6	0	
0.4	0.65	0	
0.4	0.7	0	
0.4	0.75	0	
0.4	0.8	0	
0.4	0.85	0	
0.4	0.9	0	
0.4	0.95	0	
0.4	1	0	
0.45	0	0	
0.45	0.05	0	
0.45	0.1	0	
0.45	0.15	0	
0.45	0.2	0	
0.45	0.25	0	
0.45	0.3	0	
0.45	0.35	0	
0.45	0.4	0	
0.45	0.45	0	
0.45	0.5	0	
0.45	0.55	0	
0.45	0.6	0	
0.45	0.65	0	
0.45	0.7	0	
0.45	0.75	0	
0.45	0.8	0	
0.45	0.85	0	
0.45	0.9	0	
0.45	0.95	0	
0.45	1	0	
0.5	0	0	
0.5	0.05	0	
0.5	0.1	0	
0.5	0.15	0	
0.5	0.2	0	
0.5	0.25	0	
0.5	0.3	0	
0.5	0.35	0	
0.5	0.4	0	
0.5	0.45	0	
0.5	0.5	0	
0.5	0.55	0	
0.5	0.6	0	
0.5	0.65	0	
0.5	0.7	0	
0.5	0.75	0	
0.5	0.8	0	
0.5	0.85	0	
0.5	0.9	0	
0.5	0.95	0	
0.5	1	0	
0.55	0	0	
0.55	0.05	0	
0.55	0.1	0	
0.55	0.15	0	
0.55	0.2	0	
0.55	0.25	0	
0.55	0.3	0	
0.55	0.35	0	
0.55	0.4	0	
0.55	0.45	0	
0.55	0.5	0	
0.55	0.55	0	
0.55	0.6	0	
0.55	0.65	0	
0.55	0.7	0	
0.55	0.75	0	
0.55	0.8	0	
0.55	0.85	0	
0.55	0.9	0	
0.55	0.95	0	
0.55	1	0	
0.6	0	0	
0.6	0.05	0	
0.6	0.1	0	
0.6	0.15	0	
0.6	0.2	0	
0.6	0.25	0	
0.6	0.3	0	
0.6	0.35	0	
0.6	0.4	0	
0.6	0.45	0	
0.6	0.5	0	
0.6	0.55	0	
0.6	0.6	0	
0.6	0.65	0	
0.6	0.7	0	
0.6	0.75	0	
0.6	0.8	0	
0.6	0.85	0	
0.6	0.9	0	
0.6	0.95	0	
0.6	1	0	
0.65	0	0	
0.65	0.05	0	
0.65	0.1	0	
0.65	0.15	0	
0.65	0.2	0	
0.65	0.25	0	
0.65	0.3	0	
0.65	0.35	0	
0.65	0.4	0	
0.65	0.45	0	
0.65	0.5	0	
0.65	0.55	0	
0.65	0.6	0	
0.65	0.65	0	
0.65	0.7	0	
0.65	0.75	0	
0.65	0.8	0	
0.65	0.85	0	
0.65	0.9	0	
0.65	0.95	0	
0.65	1	0	
0.7	0	0	
0.7	0.05	0	
0.7	0.1	0	
0.7	0.15	0	
0.7	0.2	0	
0.7	0.25	0	
0.7	0.3	0	
0.7	0.35	0	
0.7	0.4	0	
0.7	0.45	0	
0.7	0.5	0	
0.7	0.55	0	
0.7	0.6	0	
0.7	0.65	0	
0.7	0.7	0	
0.7	0.75	0	
0.7	0.8	0	
0.7	0.85	0	
0.7	0.9	0	
0.7	0.95	0	
0.7	1	0	
0.75	0	0	
0.75	0.05	0	
0.75	0.1	0	
0.75	0.15	0	
0.75	0.2	0	
0.75	0.25	0	
0.75	0.3	0	
0.75	0.35	0	
0.75	0.4	0	
0.75	0.45	0	
0.75	0.5	0	
0.75	0.55	0	
0.75	0.6	0	
0.75	0.65	0	
0.75	0.7	0	
0.75	0.75	0	
0.75	0.8	0	
0.75	0.85	0	
0.75	0.9	0	
0.75	0.95	0	
0.75	1	0	
0.8	0	0	
0.8	0.05	0	
0.8	0.1	0	
0.8	0.15	0	
0.8	0.2	0	
0.8	0.25	0	
0.8	0.3	0	
0.8	0.35	0	
0.8	0.4	0	
0.8	0.45	0	
0.8	0.5	0	
0.8	0.55	0	
0.8	0.6	0	
0.8	0.65	0	
0.8	0.7	0	
0.8	0.75	0	
0.8	0.8	0	
0.8	0.85	0	
0.8	0.9	0	
0.8	0.95	0	
0.8	1	0	
0.85	0	0	
0.85	0.05	0	
0.85	0.1	0	
0.85	0.15	0	
0.85	0.2	0	
0.85	0.25	0	
0.85	0.3	0	
0.85	0.35	0	
0.85	0.4	0	
0.85	0.45	0	
0.85	0.5	0	
0.85	0.55	0	
0.85	0.6	0	
0.85	0.65	0	
0.85	0.7	0	
0.85	0.75	0	
0.85	0.8	0	
0.85	0.85	0	
0.85	0.9	0	
0.85	0.95	0	
0.85	1	0	
0.9	0	0	
0.9	0.05	0	
0.9	0.1	0	
0.9	0.15	0	
0.9	0.2	0	
0.9	0.25	0	
0.9	0.3	0	
0.9	0.35	0	
0.9	0.4	0	
0.9	0.45	0	
0.9	0.5	0	
0.9	0.55	0	
0.9	0.6	0	
0.9	0.65	0	
0.9	0.7	0	
0.9	0.75	0	
0.9	0.8	0	
0.9	0.85	0	
0.9	0.9	0	
0.9	0.95	0	
0.9	1	0	
0.95	0	0	
0.95	0.05	0	
0.95	0.1	0	
0.95	0.15	0	
0.95	0.2	0	
0.95	0.25	0	
0.95	0.3	0	
0.95	0.35	0	
0.95	0.4	0	
0.95	0.45	0	
0.95	0.5	0	
0.95	0.55	0	
0.95	0.6	0	
0.95	0.65	0	
0.95	0.7	0	
0.95	0.75	0	
0.95	0.8	0	
0.95	0.85	0	
0.95	0.9	0	
0.95	0.95	0	
0.95	1	0	
1	0	0	
1	0.05	0	
1	0.1	0	
1	0.15	0	
1	0.2	0	
1	0.25	0	
1	0.3	0	
1	0.35	0	
1	0.4	0	
1	0.45	0	
1	0.5	0	
1	0.55	0	
1	0.6	0	
1	0.65	0	
1	0.7	0	
1	0.75	0	
1	0.8	0	
1	0.85	0	
1	0.9	0	
1	0.95	0	
1	1	0	
0.025	0	0	
0.05	0.025	0	
0.025	0.05	0	
0	0.025	0	
0.05	0.075	0	
0.025	0.1	0	
0	0.075	0	
0.05	0.125	0	
0.025	0.15	0	
0	0.125	0	
0.05	0.175	0	
0.025	0.2	0	
0	0.175	0	
0.05	0.225	0	
0.025	0.25	0	
0	0.225	0	
0.05	0.275	0	
0.025	0.3	0	
0	0.275	0	
0.05	0.325	0	
0.025	0.35	0	
0	0.325	0	
0.05	0.375	0	
0.025	0.4	0	
0	0.375	0	
0.05	0.425	0	
0.025	0.45	0	
0	0.425	0	
0.05	0.475	0	
0.025	0.5	0	
0	0.475	0	
0.05	0.525	0	
0.025	0.55	0	
0	0.525	0	
0.05	0.575	0	
0.025	0.6	0	
0	0.575	0	
0.05	0.625	0	
0.025	0.65	0	
0	0.625	0	
0.05	0.675	0	
0.025	0.7	0	
0	0.675	0	
0.05	0.725	0	
0.025	0.75	0	
0	0.725	0	
0.05	0.775	0	
0.025	0.8	0	
0	0.775	0	
0.05	0.825	0	
0.025	0.85	0	
0	0.825	0	
0.05	0.875	0	
0.025	0.9	0	
0	0.875	0	
0.05	0.925	0	
0.025	0.95	0	
0	0.925	0	
0.05	0.975	0	
0.025	1	0	
0	0.975	0	
0.075	0	0	
0.1	0.025	0	
0.075	0.05	0	
0.1	0.075	0	
0.075	0.1	0	
0.1	0.125	0	
0.075	0.15	0	
0.1	0.175	0	
0.075	0.2	0	
0.1	0.225	0	
0.075	0.25	0	
0.1	0.275	0	
0.075	0.3	0	
0.1	0.325	0	
0.075	0.35	0	
0.1	0.375	0	
0.075	0.4	0	
0.1	0.425	0	
0.075	0.45	0	
0.1	0.475	0	
0.075	0.5	0	
0.1	0.525	0	
0.075	0.55	0	
0.1	0.575	0	
0.075	0.6	0	
0.1	0.625	0	
0.075	0.65	0	
0.1	0.675	0	
0.075	0.7	0	
0.1	0.725	0	
0.075	0.75	0	
0.1	0.775	0	
0.075	0.8	0	
0.1	0.825	0	
0.075	0.85	0	
0.1	0.875	0	
0.075	0.9	0	
0.1	0.925	0	
0.075	0.95	0	
0.1	0.975	0	
0.075	1	0	
0.125	0	0	
0.15	0.025	0	
0.125	0.05	0	
0.15	0.075	0	
0.125	0.1	0	
0.15	0.125	0	
0.125	0.15	0	
0.15	0.175	0	
0.125	0.2	0	
0.15	0.225	0	
0.125	0.25	0	
0.15	0.275	0	
0.125	0.3	0	
0.15	0.325	0	
0.125	0.35	0	
0.15	0.375	0	
0.125	0.4	0	
0.15	0.425	0	
0.125	0.45	0	
0.15	0.475	0	
0.125	0.5	0	
0.15	0.525	0	
0.125	0.55	0	
0.15	0.575	0	
0.125	0.6	0	
0.15	0.625	0	
0.125	0.65	0	
0.15	0.675	0	
0.125	0.7	0	
0.15	0.725	0	
0.125	0.75	0	
0.15	0.775	0	
0.125	0.8	0	
0.15	0.825	0	
0.125	0.85	0	
0.15	0.875	0	
0.125	0.9	0	
0.15	0.925	0	
0.125	0.95	0	
0.15	0.975	0	
0.125	1	0	
0.175	0	0	
0.2	0.025	0	
0.175	0.05	0	
0.2	0.075	0	
0.175	0.1	0	
0.2	0.125	0	
0.175	0.15	0	
0.2	0.175	0	
0.175	0.2	0	
0.2	0.225	0	
0.175	0.25	0	
0.2	0.275	0	
0.175	0.3	0	
0.2	0.325	0	
0.175	0.35	0	
0.2	0.375	0	
0.175	0.4	0	
0.2	0.425	0	
0.175	0.45	0	
0.2	0.475	0	
0.175	0.5	0	
0.2	0.525	0	
0.175	0.55	0	
0.2	0.575	0	
0.175	0.6	0	
0.2	0.625	0	
0.175	0.65	0	
0.2	0.675	0	
0.175	0.7	0	
0.2	0.725	0	
0.175	0.75	0	
0.2	0.775	0	
0.175	0.8	0	
0.2	0.825	0	
0.175	0.85	0	
0.2	0.875	0	
0.175	0.9	0	
0.2	0.925	0	
0.175	0.95	0	
0.2	0.975	0	
0.175	1	0	
0.225	0	0	
0.25	0.025	0	
0.225	0.05	0	
0.25	0.075	0	
0.225	0.1	0	
0.25	0.125	0	
0.225	0.15	0	
0.25	0.175	0	
0.225	0.2	0	
0.25	0.225	0	
0.225	0.25	0	
0.25	0.275	0	
0.225	0.3	0	
0.25	0.325	0	
0.225	0.35	0	
0.25	0.375	0	
0.225	0.4	0	
0.25	0.425	0	
0.225	0.45	0	
0.25	0.475	0	
0.225	0.5	0	
0.25	0.525	0	
0.225	0.55	0	
0.25	0.575	0	
0.225	0.6	0	
0.25	0.625	0	
0.225	0.65	0	
0.25	0.675	0	
0.225	0.7	0	
0.25	0.725	0	
0.225	0.75	0	
0.25	0.775	0	
0.225	0.8	0	
0.25	0.825	0	
0.225	0.85	0	
0.25	0.875	0	
0.225	0.9	0	
0.25	0.925	0	
0.225	0.95	0	
0.25	0.975	0	
0.225	1	0	
0.275	0	0	
0.3	0.025	0	
0.275	0.05	0	
0.3	0.075	0	
0.275	0.1	0	
0.3	0.125	0	
0.275	0.15	0	
0.3	0.175	0	
0.275	0.2	0	
0.3	0.225	0	
0.275	0.25	0	
0.3	0.275	0	
0.275	0.3	0	
0.3	0.325	0	
0.275	0.35	0	
0.3	0.375	0	
0.275	0.4	0	
0.3	0.425	0	
0.275	0.45	0	
0.3	0.475	0	
0.275	0.5	0	
0.3	0.525	0	
0.275	0.55	0	
0.3	0.575	0	
0.275	0.6	0	
0.3	0.625	0	
0.275	0.65	0	
0.3	0.675	0	
0.275	0.7	0	
0.3	0.725	0	
0.275	0.75	0	
0.3	0.775	0	
0.275	0.8	0	
0.3	0.825	0	
0.275	0.85	0	
0.3	0.875	0	
0.275	0.9	0	
0.3	0.925	0	
0.275	0.95	0	
0.3	0.975	0	
0.275	1	0	
0.325	0	0	
0.35	0.025	0	
0.325	0.05	0	
0.35	0.075	0	
0.325	0.1	0	
0.35	0.125	0	
0.325	0.15	0	
0.35	0.175	0	
0.325	0.2	0	
0.35	0.225	0	
0.325	0.25	0	
0.35	0.275	0	
0.325	0.3	0	
0.35	0.325	0	
0.325	0.35	0	
0.35	0.375	0	
0.325	0.4	0	
0.35	0.425	0	
0.325	0.45	0	
0.35	0.475	0	
0.325	0.5	0	
0.35	0.525	0	
0.325	0.55	0	
0.35	0.575	0	
0.325	0.6	0	
0.35	0.625	0	
0.325	0.65	0	
0.35	0.675	0	
0.325	0.7	0	
0.35	0.725	0	
0.325	0.75	0	
0.35	0.775	0	
0.325	0.8	0	
0.35	0.825	0	
0.325	0.85	0	
0.35	0.875	0	
0.325	0.9	0	
0.35	0.925	0	
0.325	0.95	0	
0.35	0.975	0	
0.325	1	0	
0.375	0	0	
0.4	0.025	0	
0.375	0.05	0	
0.4	0.075	0	
0.375	0.1	0	
0.4	0.125	0	
0.375	0.15	0	
0.4	0.175	0	
0.375	0.2	0	
0.4	0.225	0	
0.375	0.25	0	
0.4	0.275	0	
0.375	0.3	0	
0.4	0.325	0	
0.375	0.35	0	
0.4	0.375	0	
0.375	0.4	0	
0.4	0.425	0	
0.375	0.45	0	
0.4	0.475	0	
0.375	0.5	0	
0.4	0.525	0	
0.375	0.55	0	
0.4	0.575	0	
0.375	0.6	0	
0.4	0.625	0	
0.375	0.65	0	
0.4	0.675	0	
0.375	0.7	0	
0.4	0.725	0	
0.375	0.75	0	
0.4	0.775	0	
0.375	0.8	0	
0.4	0.825	0	
0.375	0.85	0	
0.4	0.875	0	
0.375	0.9	0	
0.4	0.925	0	
0.375	0.95	0	
0.4	0.975	0	
0.375	1	0	
0.425	0	0	
0.45	0.025	0	
0.425	0.05	0	
0.45	0.075	0	
0.425	0.1	0	
0.45	0.125	0	
0.425	0.15	0	
0.45	0.175	0	
0.425	0.2	0	
0.45	0.225	0	
0.425	0.25	0	
0.45	0.275	0	
0.425	0.3	0	
0.45	0.325	0	
[...]
POINT_DATA	1281
VECTORS u float
0	0	0	
0	0	0	
0	0	0	
0	0	0	
0	0	0	
0	0	0	
0	0	0	
0	0	0	
0	0	0	
0	0	0	
0	0	0	
0	0	0	
0	0	0	
0	0	0	
0	0	0	
0	0	0	
0	0	0	
0	0	0	
0	0	0	
0	0	0	
1	0	0	
0	0	0	
8.90575e-005	-0.000651657	0	
-0.00536039	0.00431509	0	
-0.0143427	0.0199408	0	
-0.02302	0.046569	0	
-0.0260088	0.081099	0	
-0.0222584	0.117399	0	
-0.0143526	0.148368	0	
-0.00451798	0.169676	0	
0.0047414	0.180264	0	
0.0125612	0.179397	0	
0.0184272	0.167646	0	
0.022134	0.145443	0	
0.0236337	0.115485	0	
0.0218781	0.0774826	0	
0.0155322	0.0407083	0	
0.00790416	0.0155205	0	
-0.00149588	0.00456492	0	
-0.00681334	0.00854698	0	
-0.00826316	-0.0146521	0	
1	0	0	
0	0	0	
-0.00129974	-0.00160402	0	
-0.0177001	0.00771241	0	
-0.0447032	0.0357217	0	
-0.0682884	0.0846735	0	
-0.0736619	0.143	0	
-0.0619328	0.192204	0	
-0.0421256	0.227016	0	
-0.0209951	0.248847	0	
-0.00069181	0.259181	0	
0.0173951	0.259412	0	
0.0328629	0.249264	0	
0.0449757	0.230465	0	
0.053084	0.203816	0	
0.0564216	0.172949	0	
0.0540381	0.138712	0	
0.0418325	0.0950424	0	
0.0222226	0.0521964	0	
-0.00367201	0.0277879	0	
-0.0209985	0.0179548	0	
1	0	0	
0	0	0	
-0.00432125	-0.00192766	0	
-0.0426924	0.0184716	0	
-0.101053	0.0699206	0	
-0.134112	0.140107	0	
-0.126909	0.192965	0	
-0.099834	0.223171	0	
-0.0685866	0.240865	0	
-0.0391244	0.255074	0	
-0.0116468	0.266275	0	
0.0142771	0.274356	0	
0.0384405	0.277184	0	
0.0602036	0.272651	0	
0.0776931	0.257993	0	
0.0888807	0.231611	0	
0.0915657	0.194855	0	
0.0861594	0.154752	0	
0.0656797	0.112606	0	
0.0300344	0.0631092	0	
-0.0101521	0.0252547	0	
1	0	0	
0	0	0	
-0.0133057	0.00468496	0	
-0.0894005	0.0399786	0	
-0.173408	0.10222	0	
-0.186334	0.156539	0	
-0.151551	0.17534	0	
-0.112285	0.18397	0	
-0.078745	0.19355	0	
-0.0476714	0.204943	0	
-0.0180559	0.215788	0	
0.0110721	0.225086	0	
0.039194	0.233075	0	
0.066637	0.239394	0	
0.0925292	0.241966	0	
0.114686	0.235444	0	
0.127609	0.215925	0	
0.1267	0.181557	0	
0.111964	0.139841	0	
0.0797107	0.0904391	0	
0.0426102	0.0337426	0	
1	0	0	
0	0	0	
-0.0316179	0.0141738	0	
-0.150546	0.0539776	0	
-0.2283	0.108975	0	
-0.203561	0.131682	0	
-0.157198	0.13448	0	
-0.121042	0.142232	0	
-0.0892639	0.153502	0	
-0.0579872	0.165171	0	
-0.026506	0.175025	0	
0.00424199	0.181906	0	
0.0335862	0.185567	0	
0.0610401	0.186936	0	
0.0885236	0.189052	0	
0.11769	0.192641	0	
0.144941	0.191163	0	
0.160415	0.174458	0	
0.153848	0.140961	0	
0.132933	0.0933511	0	
0.0842366	0.0499621	0	
1	0	0	
0	0	0	
-0.0570346	0.0194508	0	
-0.208372	0.0537413	0	
-0.255431	0.0930249	0	
-0.204419	0.0974577	0	
-0.162084	0.0993835	0	
-0.130899	0.108493	0	
-0.100708	0.118412	0	
-0.0690215	0.129122	0	
-0.0352893	0.138317	0	
-0.00113706	0.145137	0	
0.0318279	0.147868	0	
0.0616789	0.146842	0	
0.0885988	0.144544	0	
0.116287	0.143631	0	
0.14859	0.145573	0	
0.178954	0.141774	0	
0.191071	0.122646	0	
0.178844	0.0866935	0	
0.164579	0.0444191	0	
1	0	0	
0	0	0	
-0.0846079	0.0202288	0	
-0.247745	0.0421672	0	
-0.262847	0.0667677	0	
-0.204842	0.0668088	0	
-0.169135	0.0685209	0	
-0.139915	0.0762882	0	
-0.109579	0.0837814	0	
-0.07767	0.0926803	0	
-0.0432511	0.100954	0	
-0.00641138	0.108216	0	
0.0303535	0.112352	0	
0.0639661	0.112656	0	
0.0918688	0.108519	0	
0.116929	0.10398	0	
0.146893	0.102668	0	
0.184419	0.102904	0	
0.211199	0.0945153	0	
0.218117	0.0682552	0	
0.181536	0.0420743	0	
1	0	0	
0	0	0	
-0.108923	0.0169076	0	
-0.270962	0.024395	0	
-0.26177	0.0380926	0	
-0.205877	0.0394002	0	
-0.173029	0.0394297	0	
-0.146041	0.0444426	0	
-0.117877	0.0500972	0	
-0.0861496	0.0567472	0	
-0.0508431	0.0639721	0	
-0.0125684	0.0708814	0	
0.0270567	0.0763779	0	
0.0647166	0.0788841	0	
0.096378	0.0770442	0	
0.121379	0.0718333	0	
0.148196	0.0679712	0	
0.184807	0.0674058	0	
0.223338	0.0650152	0	
0.236444	0.0521794	0	
0.239998	0.0340014	0	
1	0	0	
0	0	0	
-0.121511	0.00962402	0	
-0.28154	0.00373632	0	
-0.258864	0.00952825	0	
-0.205859	0.0122217	0	
-0.177321	0.011634	0	
-0.150054	0.0145144	0	
-0.121507	0.0179163	0	
-0.0914402	0.0226352	0	
-0.0572976	0.0282208	0	
-0.018743	0.0344051	0	
0.0222952	0.0405416	0	
0.0627429	0.0451274	0	
0.0984132	0.0466712	0	
0.125937	0.0440933	0	
0.15004	0.0398951	0	
0.184781	0.0394155	0	
0.223765	0.0402476	0	
0.25585	0.0328733	0	
0.226056	0.0315412	0	
1	0	0	
0	0	0	
-0.119604	-7.11323e-005	0	
-0.281178	-0.0190829	0	
-0.258765	-0.0196211	0	
-0.204568	-0.0142249	0	
-0.176789	-0.0158809	0	
-0.15268	-0.0151115	0	
-0.126981	-0.0124184	0	
-0.09633	-0.00924773	0	
-0.0622558	-0.00540624	0	
-0.0245215	-0.000248908	0	
0.0166115	0.00573754	0	
0.0583813	0.0117744	0	
0.0969493	0.0164067	0	
0.127809	0.0178452	0	
0.15301	0.0164376	0	
0.183006	0.0160023	0	
0.225008	0.0188064	0	
0.25146	0.021038	0	
0.268394	0.0252257	0	
1	0	0	
0	0	0	
-0.103178	-0.0109111	0	
-0.268573	-0.0418663	0	
-0.262053	-0.050536	0	
-0.20326	-0.042602	0	
-0.178998	-0.0433991	0	
-0.153727	-0.0429108	0	
-0.126324	-0.0424286	0	
-0.0983947	-0.0404113	0	
-0.0664934	-0.037223	0	
-0.0295856	-0.0331167	0	
0.0105704	-0.0275526	0	
0.0522348	-0.0208129	0	
0.0919605	-0.0137389	0	
0.125842	-0.00822215	0	
0.152057	-0.00558748	0	
0.181567	-0.00294644	0	
0.21692	0.00275567	0	
0.258997	0.00658701	0	
0.228858	0.0260246	0	
1	0	0	
0	0	0	
-0.0737161	-0.0181122	0	
-0.236475	-0.0618606	0	
-0.272158	-0.0861846	0	
-0.204718	-0.0708952	0	
-0.175883	-0.0710975	0	
-0.153164	-0.0728583	0	
-0.130502	-0.071867	0	
-0.102291	-0.0706588	0	
-0.0693759	-0.0685965	0	
-0.0340503	-0.0649594	0	
0.00445417	-0.0598759	0	
0.0448862	-0.0524036	0	
0.0843687	-0.0437492	0	
0.119211	-0.0346929	0	
0.148138	-0.0271598	0	
0.17534	-0.0209083	0	
0.212569	-0.0129365	0	
0.239693	-0.000672641	0	
0.266837	0.0229008	0	
1	0	0	
0	0	0	
-0.0390814	-0.0194797	0	
-0.179127	-0.0699234	0	
-0.278891	-0.121839	0	
-0.211957	-0.105598	0	
-0.177162	-0.101192	0	
-0.153566	-0.100131	0	
-0.12737	-0.101391	0	
-0.100841	-0.101787	0	
-0.0719297	-0.0999372	0	
-0.0383142	-0.0969367	0	
-0.00168926	-0.0912284	0	
0.0364727	-0.0840242	0	
0.0744803	-0.0735177	0	
0.10909	-0.0617023	0	
0.138179	-0.0497037	0	
0.167103	-0.0383104	0	
0.197099	-0.025249	0	
0.240067	-0.0123344	0	
0.204588	0.0271064	0	
1	0	0	
0	0	0	
-0.00622871	-0.0113486	0	
-0.103171	-0.0566391	0	
-0.250273	-0.143103	0	
-0.237297	-0.153135	0	
-0.174682	-0.128306	0	
-0.15112	-0.130445	0	
-0.130424	-0.131772	0	
-0.104935	-0.131519	0	
-0.0744055	-0.131487	0	
-0.0423162	-0.128307	0	
-0.00819177	-0.123773	0	
0.0273457	-0.114766	0	
0.0624346	-0.103929	0	
0.0953866	-0.0892488	0	
0.124478	-0.0732299	0	
0.151791	-0.0567914	0	
0.185107	-0.0401498	0	
0.206786	-0.0178263	0	
0.247507	0.0282527	0	
1	0	0	
0	0	0	
0.0150531	-0.00121169	0	
-0.037825	-0.0299708	0	
-0.160296	-0.116108	0	
-0.248808	-0.195285	0	
-0.197168	-0.175598	0	
-0.15257	-0.158479	0	
-0.125915	-0.159949	0	
-0.0981557	-0.161666	0	
-0.0738305	-0.160984	0	
-0.0454127	-0.160064	0	
-0.0145458	-0.154619	0	
0.0173074	-0.147065	0	
0.0488693	-0.133699	0	
0.0783826	-0.117789	0	
0.105952	-0.0982694	0	
0.13296	-0.0768808	0	
0.159039	-0.0528675	0	
0.19976	-0.0282051	0	
0.15938	0.0364054	0	
1	0	0	
0	0	0	
0.0193425	0.00515968	0	
-0.000987822	-0.00250116	0	
-0.0565651	-0.0519203	0	
-0.1742	-0.164655	0	
-0.224654	-0.23737	0	
-0.164734	-0.204972	0	
-0.123642	-0.186655	0	
-0.107469	-0.189302	0	
-0.079025	-0.191674	0	
-0.0495632	-0.189932	0	
-0.0210335	-0.186108	0	
0.0069604	-0.177304	0	
0.0339811	-0.165153	0	
0.0594536	-0.147054	0	
0.0831825	-0.125181	0	
0.108201	-0.0996321	0	
0.133197	-0.0686154	0	
0.14788	-0.0342835	0	
0.21817	0.0458548	0	
1	0	0	
0	0	0	
0.0122291	0.00558328	0	
0.0116539	0.00847687	0	
-0.00574017	-0.00038103	0	
-0.0534175	-0.0593608	0	
-0.145458	-0.182915	0	
-0.194607	-0.271969	0	
-0.155809	-0.251198	0	
-0.095537	-0.221079	0	
-0.0643614	-0.215678	0	
-0.0458456	-0.216715	0	
-0.0246028	-0.214709	0	
-0.00241606	-0.207626	0	
0.0187027	-0.196441	0	
0.0393676	-0.178553	0	
0.0571938	-0.155418	0	
0.075056	-0.123168	0	
0.0928424	-0.0856662	0	
0.133417	-0.0413749	0	
0.0970855	0.0600556	0	
1	0	0	
0	0	0	
0.0050402	0.00291899	0	
0.0098328	0.00929952	0	
0.00458108	0.0113236	0	
-0.00625555	0.00221448	0	
-0.0284956	-0.0264137	0	
-0.0852225	-0.150037	0	
-0.132766	-0.283322	0	
-0.131221	-0.31269	0	
-0.10675	-0.283228	0	
-0.0698851	-0.259397	0	
-0.0376674	-0.243934	0	
-0.0148513	-0.239578	0	
0.00284596	-0.227732	0	
0.0162104	-0.21285	0	
0.027527	-0.186642	0	
0.0371393	-0.155323	0	
0.0417614	-0.108777	0	
0.0619327	-0.0768823	0	
0.190119	0.0811	0	
1	0	0	
0	0	0	
0.0010186	0.000963413	0	
0.00375312	0.00521666	0	
0.00226583	0.00981746	0	
0.00128469	0.0120003	0	
-0.00125696	0.0108002	0	
-0.00864336	-0.00911083	0	
-0.0255526	-0.0296257	0	
-0.0522074	-0.151175	0	
-0.0626755	-0.29683	0	
-0.0454077	-0.356757	0	
-0.0307926	-0.375678	0	
-0.0184687	-0.372453	0	
-0.0102281	-0.356312	0	
-0.00672358	-0.337593	0	
-0.00180032	-0.305938	0	
-0.00221154	-0.270776	0	
0.00524476	-0.212456	0	
0.00119654	-0.128382	0	
6.77251e-005	0.107411	0	
1	0	0	
0	0	0	
0	0	0	
0	0	0	
0	0	0	
0	0	0	
0	0	0	
0	0	0	
0	0	0	
0	0	0	
0	0	0	
0	0	0	
0	0	0	
0	0	0	
0	0	0	
0	0	0	
0	0	0	
0	0	0	
0	0	0	
0	0	0	
0	0	0	
1	0	0	
0	0	0	
0.00186272	-0.00045606	0	
-8.55779e-006	-0.00174051	0	
0	0	0	
-0.00212122	0.000250298	0	
-0.00171429	0.000634524	0	
0	0	0	
-0.00967785	0.00929692	0	
-0.00495518	0.0122342	0	
0	0	0	
-0.0187426	0.0305826	0	
-0.00809899	0.0344641	0	
0	0	0	
-0.0252197	0.0637135	0	
-0.00955183	0.0646401	0	
0	0	0	
-0.0247768	0.101243	0	
-0.00839176	0.0957541	0	
0	0	0	
-0.0187758	0.135332	0	
-0.00534388	0.119325	0	
0	0	0	
-0.00948768	0.161133	0	
-0.00169155	0.131506	0	
0	0	0	
0.000224414	0.176571	0	
0.00194239	0.130997	0	
0	0	0	
0.00887042	0.180948	0	
0.0048617	0.119701	0	
0	0	0	
0.0157592	0.17424	0	
0.00675834	0.0997784	0	
0	0	0	
0.0205422	0.15695	0	
0.00771511	0.074909	0	
0	0	0	
0.0232535	0.130663	0	
0.00730348	0.0475709	0	
0	0	0	
0.0232682	0.0966204	0	
0.00516931	0.0229117	0	
0	0	0	
0.0194828	0.058632	0	
0.00221963	0.00543437	0	
0	0	0	
0.0117498	0.0260131	0	
0.00150042	-0.00248974	0	
0	0	0	
0.00303125	0.00874576	0	
-0.000433946	-0.00776097	0	
0	0	0	
-0.0013576	0.00147425	0	
-0.00578483	0.00223823	0	
0	0	0	
-0.0377122	0.00202859	0	
-0.00267354	0.0365073	0	
0	0	0	
0.0424168	0.00299623	0	
1	0	0	
0	0	0	
0	0	0	
0.00409535	-0.00120474	0	
-0.000671617	-0.00107862	0	
-0.00810605	0.000873636	0	
-0.0110818	0.00579603	0	
-0.0299967	0.0175005	0	
-0.0278642	0.0266071	0	
-0.0572709	0.0578384	0	
-0.0442596	0.0631977	0	
-0.0734477	0.115318	0	
-0.0503234	0.111061	0	
-0.0695187	0.170113	0	
-0.0445876	0.15672	0	
-0.0524656	0.211668	0	
-0.03085	0.191648	0	
-0.0315406	0.239309	0	
-0.0146234	0.213135	0	
-0.0105422	0.255027	0	
0.00114141	0.222519	0	
0.00868325	0.260152	0	
0.0150095	0.221032	0	
0.0255781	0.255107	0	
0.0262173	0.210239	0	
0.0394225	0.240523	0	
0.0343004	0.19105	0	
0.0496336	0.217622	0	
0.0388513	0.164964	0	
0.0553986	0.188605	0	
0.0393837	0.133147	0	
0.0560577	0.156391	0	
0.0336572	0.093082	0	
0.0492742	0.118135	0	
0.0204716	0.0505547	0	
0.0321841	0.0725043	0	
0.0065047	0.02359	0	
0.00601359	0.0388214	0	
-0.00830969	0.0153927	0	
-0.0364895	0.0190959	0	
-0.0116013	0.0108932	0	
0.0613341	0.0121382	0	
1	0	0	
0	0	0	
0.00785731	-0.00134521	0	
-0.00284807	-0.00191606	0	
-0.0205834	0.0029837	0	
-0.0280995	0.0111737	0	
-0.0699279	0.0383129	0	
-0.0696395	0.0503079	0	
-0.122948	0.106819	0	
-0.102083	0.113998	0	
-0.134466	0.171164	0	
-0.10381	0.17634	0	
-0.114581	0.210569	0	
-0.0833425	0.219751	0	
-0.0841005	0.232867	0	
-0.0559721	0.247054	0	
-0.0535657	0.248325	0	
-0.0283057	0.264941	0	
-0.0251845	0.260947	0	
-0.00280228	0.275663	0	
0.00147283	0.27071	0	
0.0203822	0.279577	0	
0.0265222	0.276355	0	
0.0406523	0.275322	0	
0.0496118	0.275834	0	
0.0572001	0.261545	0	
0.0694423	0.266461	0	
0.0688383	0.237949	0	
0.0839508	0.246059	0	
0.0743396	0.205255	0	
0.0907671	0.213958	0	
0.0735592	0.168712	0	
0.0889804	0.174773	0	
0.0651165	0.131265	0	
0.0765272	0.135273	0	
0.0407771	0.0840204	0	
0.044522	0.0876722	0	
0.00916063	0.0461203	0	
-0.00686979	0.0472864	0	
-0.0230419	0.0244503	0	
0.114746	0.00771158	0	
1	0	0	
0	0	0	
0.00895006	0.000730375	0	
-0.00723948	0.000274853	0	
-0.046075	0.0146623	0	
-0.0627625	0.0286945	0	
-0.13588	0.0702149	0	
-0.137986	0.0885976	0	
-0.188793	0.136344	0	
-0.164358	0.155397	0	
-0.171321	0.16854	0	
-0.141684	0.190405	0	
-0.131139	0.179668	0	
-0.10514	0.207735	0	
-0.095207	0.188378	0	
-0.0711061	0.219635	0	
-0.0632389	0.199268	0	
-0.0406665	0.23183	0	
-0.0331753	0.210446	0	
-0.012045	0.242701	0	
-0.00384998	0.220507	0	
0.0151629	0.252443	0	
0.0245606	0.229051	0	
0.0415138	0.259019	0	
0.0522121	0.23621	0	
0.0665294	0.26178	0	
0.0787787	0.241103	0	
0.088987	0.25647	0	
0.103078	0.239725	0	
0.105617	0.240735	0	
0.120932	0.227176	0	
0.112404	0.211526	0	
0.126519	0.200221	0	
0.106306	0.171358	0	
0.116238	0.160498	0	
0.0904677	0.129404	0	
0.0916177	0.115276	0	
0.0499911	0.0818547	0	
0.0368436	0.0607806	0	
0.0142546	0.0233539	0	
0.118512	0.0150444	0	
1	0	0	
0	0	0	
0.000678947	0.00273066	0	
-0.0204168	0.00936192	0	
-0.0828596	0.0281534	0	
-0.118804	0.0487004	0	
-0.203669	0.086632	0	
-0.204325	0.109429	0	
-0.222682	0.125632	0	
-0.1969	0.147202	0	
-0.17897	0.132424	0	
-0.15304	0.155383	0	
-0.138377	0.13769	0	
-0.115366	0.162536	0	
-0.105174	0.147919	0	
-0.0831258	0.173286	0	
-0.0739094	0.15965	0	
-0.0527325	0.184627	0	
-0.0424988	0.170425	0	
-0.0227446	0.194719	0	
-0.0114426	0.178778	0	
0.00646735	0.201843	0	
0.0186154	0.18387	0	
0.0346862	0.207151	0	
0.0467128	0.186156	0	
0.062245	0.2111	0	
0.0736552	0.187479	0	
0.0902997	0.215805	0	
0.101666	0.190449	0	
0.117903	0.217074	0	
0.130338	0.192484	0	
0.139461	0.207276	0	
0.152503	0.183945	0	
0.146619	0.182341	0	
0.156673	0.158888	0	
0.134219	0.142415	0	
0.138027	0.11809	0	
0.108483	0.0956627	0	
0.0977139	0.0745216	0	
0.0649427	0.0330656	0	
0.186391	0.0129233	0	
1	0	0	
0	0	0	
-0.014297	0.00302479	0	
-0.043122	0.0174303	0	
-0.12885	0.0348324	0	
-0.180746	0.0558755	0	
-0.249168	0.0814816	0	
-0.244141	0.103271	0	
-0.232028	0.0960812	0	
-0.203748	0.114416	0	
-0.181117	0.0972357	0	
-0.158921	0.116843	0	
-0.146215	0.1039	0	
-0.125748	0.125812	0	
-0.115986	0.113597	0	
-0.09495	0.13645	0	
-0.0852524	0.124039	0	
-0.0634243	0.14746	0	
-0.0525163	0.133965	0	
-0.0311078	0.156579	0	
-0.0184937	0.142026	0	
0.00154179	0.163285	0	
0.0151899	0.146759	0	
0.0325803	0.166038	0	
0.0465115	0.147497	0	
0.0611198	0.166225	0	
0.0744707	0.145599	0	
0.0878127	0.165529	0	
0.100614	0.14359	0	
0.116475	0.16678	0	
0.129903	0.143785	0	
0.147886	0.168793	0	
0.161843	0.143723	0	
0.171655	0.160095	0	
0.182486	0.133208	0	
0.175842	0.133308	0	
0.178635	0.104532	0	
0.155694	0.0934714	0	
0.143751	0.0654135	0	
0.131926	0.0373178	0	
0.199612	0.0193976	0	
1	0	0	
0	0	0	
-0.0304554	0.00263529	0	
-0.0706212	0.0206812	0	
-0.172426	0.0323629	0	
-0.229891	0.0492311	0	
-0.273675	0.0630723	0	
-0.260039	0.0806012	0	
-0.230774	0.0653298	0	
-0.203972	0.0820046	0	
-0.18569	0.0667775	0	
-0.165637	0.0842274	0	
-0.15442	0.0724601	0	
-0.135565	0.0925627	0	
-0.12512	0.0800793	0	
-0.105551	0.101304	0	
-0.0938459	0.0886079	0	
-0.0734589	0.111313	0	
-0.0608952	0.0970401	0	
-0.0390576	0.119978	0	
-0.0250825	0.104799	0	
-0.00340977	0.126878	0	
0.011884	0.110434	0	
0.0316453	0.130532	0	
0.0473756	0.112764	0	
0.0629545	0.129602	0	
0.0778895	0.110673	0	
0.0899265	0.125829	0	
0.103376	0.105999	0	
0.115917	0.122886	0	
0.129491	0.10257	0	
0.147452	0.123091	0	
0.162875	0.101777	0	
0.182522	0.122078	0	
0.196469	0.0979471	0	
0.203637	0.10916	0	
0.210447	0.0824198	0	
0.199326	0.0786193	0	
0.188073	0.0582638	0	
0.181023	0.0302762	0	
0.278666	0.0151823	0	
1	0	0	
0	0	0	
-0.0447802	0.00154656	0	
-0.0974779	0.0191976	0	
-0.201638	0.0220064	0	
-0.260792	0.0340812	0	
-0.285577	0.039344	0	
-0.262368	0.0526099	0	
-0.229691	0.0372614	0	
-0.205285	0.0530273	0	
-0.188019	0.0380265	0	
-0.171378	0.0541898	0	
-0.159541	0.0424454	0	
-0.143235	0.0607883	0	
-0.132219	0.0473125	0	
-0.113752	0.0669608	0	
-0.102536	0.0535363	0	
-0.0821042	0.07441	0	
-0.0689026	0.0606319	0	
-0.0470878	0.0823648	0	
-0.0319823	0.0676203	0	
-0.00930773	0.08963	0	
0.00722767	0.0737208	0	
0.0290233	0.0943736	0	
0.0461807	0.0775937	0	
0.0648898	0.0958714	0	
0.0811505	0.0781242	0	
0.0945	0.0926068	0	
0.108869	0.0745587	0	
0.119091	0.0872228	0	
0.133084	0.0695464	0	
0.147342	0.0843486	0	
0.163988	0.0668113	0	
0.184689	0.0844801	0	
0.202539	0.0657788	0	
0.218842	0.0793797	0	
0.227176	0.0575601	0	
0.226788	0.0619693	0	
0.220239	0.0441769	0	
0.220443	0.0242037	0	
0.278399	0.0182915	0	
1	0	0	
0	0	0	
-0.0529489	-0.000435505	0	
-0.116616	0.0137495	0	
-0.215541	0.00643784	0	
-0.277323	0.0144892	0	
-0.289678	0.0130769	0	
-0.260131	0.0239764	0	
-0.228692	0.0110034	0	
-0.205979	0.0261802	0	
-0.190746	0.0105859	0	
-0.175327	0.0256275	0	
-0.16368	0.0128585	0	
-0.148379	0.0292281	0	
-0.136041	0.0162273	0	
-0.120163	0.0340098	0	
-0.106853	0.0206551	0	
-0.0890593	0.0397895	0	
-0.0749397	0.025604	0	
-0.0541784	0.0458992	0	
-0.0384409	0.0314531	0	
-0.0156656	0.0524788	0	
0.00169398	0.0375067	0	
0.0248636	0.0583954	0	
0.0428529	0.0427391	0	
0.0641008	0.061955	0	
0.0813138	0.0457871	0	
0.0979633	0.0618518	0	
0.112903	0.0454615	0	
0.123933	0.0577464	0	
0.137253	0.0420139	0	
0.149131	0.053359	0	
0.16552	0.039054	0	
0.184556	0.0527471	0	
0.202897	0.037981	0	
0.224782	0.0522516	0	
0.240077	0.0365279	0	
0.245011	0.0426212	0	
0.235139	0.0352617	0	
0.244197	0.0158642	0	
0.349518	0.0131294	0	
1	0	0	
0	0	0	
-0.0516111	-0.0035271	0	
-0.122674	0.00486207	0	
-0.212713	-0.0121117	0	
-0.28241	-0.00723199	0	
-0.291445	-0.0151529	0	
-0.258373	-0.00467669	0	
-0.228811	-0.0154195	0	
-0.205421	-0.0010259	0	
-0.190491	-0.0167731	0	
-0.17742	-0.00191422	0	
-0.164754	-0.0152913	0	
-0.15163	0.000112294	0	
-0.140089	-0.0135914	0	
-0.12432	0.00256381	0	
-0.112229	-0.011034	0	
-0.0941136	0.00619898	0	
-0.079876	-0.00714178	0	
-0.0601099	0.0111877	0	
-0.0438815	-0.00261556	0	
-0.0218246	0.0168536	0	
-0.00420128	0.00275813	0	
0.0194403	0.0229074	0	
0.0376977	0.00858394	0	
0.0607868	0.0283199	0	
0.0783852	0.013795	0	
0.0981382	0.0314986	0	
0.11335	0.0169793	0	
0.127424	0.0309012	0	
0.14057	0.0171389	0	
0.151796	0.0279169	0	
0.166204	0.0158854	0	
0.183894	0.0272572	0	
0.20386	0.0170964	0	
0.225193	0.0294283	0	
0.237896	0.0183002	0	
0.251514	0.0282885	0	
0.250168	0.0234451	0	
0.261318	0.00893288	0	
0.329299	0.0166534	0	
1	0	0	
0	0	0	
-0.0386509	-0.00578915	0	
-0.114033	-0.00570675	0	
-0.19295	-0.0305792	0	
-0.276453	-0.0304699	0	
-0.290462	-0.0469027	0	
-0.259784	-0.0344971	0	
-0.230037	-0.0429477	0	
-0.204074	-0.0278691	0	
-0.191562	-0.0434937	0	
-0.177952	-0.0295726	0	
-0.166442	-0.0439921	0	
-0.153372	-0.0294305	0	
-0.140353	-0.0430926	0	
-0.127161	-0.0272783	0	
-0.113175	-0.040959	0	
-0.0977554	-0.024567	0	
-0.0831067	-0.0386451	0	
-0.0645812	-0.0215308	0	
-0.0484648	-0.0351457	0	
-0.0272907	-0.0169807	0	
-0.00990335	-0.0304081	0	
0.0134766	-0.0111632	0	
0.0314083	-0.0243257	0	
0.0553945	-0.00468365	0	
0.0726166	-0.0176404	0	
0.0947475	0.00126041	0	
0.109963	-0.011408	0	
0.127307	0.00484743	0	
0.13931	-0.00698751	0	
0.152934	0.00542109	0	
0.166252	-0.00444682	0	
0.182311	0.00657612	0	
0.197624	-0.00147414	0	
0.221687	0.0107592	0	
0.240997	0.00386307	0	
0.252755	0.0140464	0	
0.242758	0.0195408	0	
0.265376	0.00240747	0	
0.392474	0.0117333	0	
1	0	0	
0	0	0	
-0.0180937	-0.00657476	0	
-0.0907029	-0.0155943	0	
-0.153376	-0.0439322	0	
-0.255612	-0.0524976	0	
-0.283962	-0.0798145	0	
-0.266494	-0.0674839	0	
-0.236534	-0.0739825	0	
-0.203528	-0.0567292	0	
-0.189437	-0.0722877	0	
-0.177883	-0.0570972	0	
-0.164943	-0.0718658	0	
-0.153862	-0.0571554	0	
-0.143309	-0.0717755	0	
-0.128321	-0.0573517	0	
-0.11715	-0.0718229	0	
-0.100203	-0.0559894	0	
-0.0859484	-0.0696369	0	
-0.0681921	-0.0529922	0	
-0.0523546	-0.0667833	0	
-0.0319656	-0.0491103	0	
-0.0152013	-0.0623459	0	
0.00738531	-0.0438836	0	
0.0244761	-0.0564099	0	
0.0485435	-0.036752	0	
0.064923	-0.0484806	0	
0.0883525	-0.0288252	0	
0.102524	-0.0396938	0	
0.122806	-0.021407	0	
0.134586	-0.0314264	0	
0.150607	-0.0161896	0	
0.160677	-0.0242251	0	
0.178439	-0.0118832	0	
0.194525	-0.0170097	0	
0.215765	-0.00440041	0	
0.226223	-0.00817922	0	
0.245435	0.00496235	0	
0.245703	0.0104555	0	
0.269657	-0.00370157	0	
0.353719	0.0171183	0	
1	0	0	
0	0	0	