# vtk DataFile Version 4.1
vtk output
ASCII
DATASET UNSTRUCTURED_GRID

POINTS	79	float
0	3	0	
0	2.75	0	
0	2.5	0	
0	2.25	0	
0	2	0	
0.75	3	0	
0.75	2.75	0	
0.75	2.5	0	
0.75	2.25	0	
0.75	2	0	
1.5	3	0	
1.5	2.75	0	
1.5	2.5	0	
1.5	2.25	0	
1.5	2	0	
1.75	3	0	
1.75	2.75	0	
1.75	2.5	0	
1.75	2.25	0	
1.75	2	0	
2	3	0	
2	2.75	0	
2	2.5	0	
2	2.25	0	
2	2	0	
2	1.75	0	
2	1.5	0	
2	1.25	0	
2	1	0	
2	0.5	0	
2	0	0	
2.375	3	0	
2.375	2.75	0	
2.375	2.25	0	
2.375	2	0	
2.375	1.75	0	
2.375	1.5	0	
2.375	1.25	0	
2.375	1	0	
2.375	0.5	0	
2.375	0	0	
2.75	3	0	
2.75	2.5	0	
2.75	2	0	
2.75	1.75	0	
2.75	1.5	0	
2.75	1.25	0	
2.75	1	0	
2.75	0.5	0	
2.75	0	0	
3.25	3	0	
3.25	2.5	0	
3.25	2	0	
3.25	1.75	0	
3.25	1.25	0	
3.25	1	0	
3.25	0.5	0	
3.25	0	0	
3.75	3	0	
3.75	2.5	0	
3.75	2	0	
3.75	1.5	0	
3.75	1	0	
3.75	0.5	0	
3.75	0	0	
4.375	3	0	
4.375	2.5	0	
4.375	2	0	
4.375	1.5	0	
4.375	1	0	
4.375	0.5	0	
4.375	0	0	
5	3	0	
5	2.5	0	
5	2	0	
5	1.5	0	
5	1	0	
5	0.5	0	
5	0	0	

CELLS 30	120
3	0	2	12	
3	2	4	14	
3	0	12	10	
3	2	14	12	
3	10	12	22	
3	12	14	24	
3	10	22	20	
3	12	24	22	
3	20	22	41	
3	22	24	43	
3	24	26	45	
3	26	28	47	
3	28	30	49	
3	22	43	41	
3	24	45	43	
3	26	47	45	
3	28	49	47	
3	41	43	60	
3	43	45	60	
3	45	47	62	
3	47	49	64	
3	41	60	58	
3	45	62	60	
3	47	64	62	
3	58	60	74	
3	60	62	76	
3	62	64	78	
3	58	74	72	
3	60	76	74	
3	62	78	76	

CELL_TYPES	30
5
5
5
5
5
5
5
5
5
5
5
5
5
5
5
5
5
5
5
5
5
5
5
5
5
5
5
5
5
5

POINT_DATA	79
VECTORS u float
-2.65359e-010	1.36968e-009	0	
0.75	1.41341e-010	0	
1	1.17561e-011	0	
0.75	-4.64115e-010	0	
2.28383e-010	-5.50704e-010	0	
7.68205e-010	1.52508e-009	0	
0.741152	0.0348957	0	
1.01866	0.00943881	0	
0.703422	-0.194457	0	
5.32467e-010	-1.52159e-009	0	
3.27987e-010	5.45598e-010	0	
0.646445	-0.103504	0	
0.896305	-0.0809139	0	
0.719635	-0.0201691	0	
4.35356e-010	-5.61418e-010	0	
3.41172e-010	4.80209e-010	0	
0.628789	-0.0626053	0	
0.814333	-0.135832	0	
0.661439	-0.108332	0	
3.40425e-010	-4.41328e-010	0	
2.13237e-010	1.77052e-010	0	
0.559209	0.0228911	0	
0.746403	-0.115481	0	
0.578141	-0.175904	0	
2.0252e-010	-1.37823e-010	0	
-1.39029e-011	-4.87599e-011	0	
3.88789e-011	-1.35807e-011	0	
-1.13393e-011	-1.71051e-012	0	
-2.8101e-011	-1.04607e-011	0	
-4.14449e-011	-1.58123e-011	0	
-4.85551e-012	-4.39102e-012	0	
2.758e-010	1.92027e-010	0	
0.441118	-0.00944365	0	
0.587921	-0.225269	0	
0.341282	-0.20148	0	
0.162416	-0.125291	0	
0.0531132	-0.0942657	0	
0.00706631	-0.0575642	0	
-0.011948	-0.0399736	0	
-0.0147043	-0.0228064	0	
-2.04169e-011	-4.87954e-011	0	
1.57056e-010	4.9177e-011	0	
0.420878	-0.0972685	0	
0.38647	-0.132902	0	
0.262515	-0.107833	0	
0.161244	-0.11063	0	
0.0824858	-0.0963944	0	
0.0335255	-0.068785	0	
0.00633262	-0.0263236	0	
1.1668e-010	-4.72467e-011	0	
9.33925e-011	6.11462e-011	0	
0.249449	-0.0100356	0	
0.278568	-0.0670711	0	
0.271762	-0.0849922	0	
0.195324	-0.100991	0	
0.16229	-0.0758465	0	
0.077317	-0.0258874	0	
2.24838e-011	-9.20113e-011	0	
6.73785e-011	3.04945e-011	0	
0.197033	0.0183759	0	
0.28334	-0.0431372	0	
0.295427	-0.0799077	0	
0.254415	-0.0811616	0	
0.137482	-0.0372402	0	
3.6004e-011	-7.56973e-011	0	
8.70316e-011	7.88561e-012	0	
0.188572	0.00629365	0	
0.312927	-0.0178458	0	
0.332797	-0.054722	0	
0.283537	-0.0510159	0	
0.171706	-0.0165497	0	
1.01266e-010	-4.99923e-011	0	
4.60851e-011	-8.17623e-012	0	
0.164229	-0.0198666	0	
0.314559	-0.0447539	0	
0.352662	-0.0443302	0	
0.290729	-0.0402634	0	
0.162335	-0.0233208	0	
5.06776e-011	-2.02743e-011	0	
SCALARS p float
LOOKUP_TABLE default
17.3969
0
22.1825
0
6.97559
0
0
0
0
0
9.01042
0
6.34023
0
7.94562
0
0
0
0
0
2.01083
0
4.46507
0
1.48288
0
-0.11617
0
0.124866
0
0.0497648
0
0
0
0
0
0
0
0
0
0
0.353429
0
0.0195694
0
0.997592
0
0.631544
0
0.428375
0
0
0
0
0
0
0
0
-0.00604296
0
0.717595
0
0.391513
0
0.509046
0
0
0
0
0
0
0
-1.22943e-012
0
1.58566e-011
0
8.26622e-012
0
-1.63544e-011
