# vtk DataFile Version 4.1
vtk output
ASCII
DATASET UNSTRUCTURED_GRID

POINTS	1836	float
0	0	0	
1	0	0	
2	0	0	
3	0	0	
4	0	0	
5	0	0	
6	0	0	
7	0	0	
8	0	0	
9	0	0	
10	0	0	
11	0	0	
12	0	0	
13	0	0	
14	0	0	
15	0	0	
16	0	0	
17	0	0	
18	0	0	
19	0	0	
20	0	0	
21	0	0	
22	0	0	
23	0	0	
24	0	0	
25	0	0	
26	0	0	
27	0	0	
28	0	0	
29	0	0	
30	0	0	
31	0	0	
32	0	0	
33	0	0	
34	0	0	
35	0	0	
36	0	0	
37	0	0	
38	0	0	
39	0	0	
40	0	0	
41	0	0	
42	0	0	
43	0	0	
44	0	0	
45	0	0	
46	0	0	
47	0	0	
48	0	0	
49	0	0	
50	0	0	
0	1	0	
1	1	0	
2	1	0	
3	1	0	
4	1	0	
5	1	0	
6	1	0	
7	1	0	
8	1	0	
9	1	0	
10	1	0	
11	1	0	
12	1	0	
13	1	0	
14	1	0	
15	1	0	
16	1	0	
17	1	0	
18	1	0	
19	1	0	
20	1	0	
21	1	0	
22	1	0	
23	1	0	
24	1	0	
25	1	0	
26	1	0	
27	1	0	
28	1	0	
29	1	0	
30	1	0	
31	1	0	
32	1	0	
33	1	0	
34	1	0	
35	1	0	
36	1	0	
37	1	0	
38	1	0	
39	1	0	
40	1	0	
41	1	0	
42	1	0	
43	1	0	
44	1	0	
45	1	0	
46	1	0	
47	1	0	
48	1	0	
49	1	0	
50	1	0	
0	2	0	
1	2	0	
2	2	0	
3	2	0	
4	2	0	
5	2	0	
6	2	0	
7	2	0	
8	2	0	
9	2	0	
10	2	0	
11	2	0	
12	2	0	
13	2	0	
14	2	0	
15	2	0	
16	2	0	
17	2	0	
18	2	0	
19	2	0	
20	2	0	
21	2	0	
22	2	0	
23	2	0	
24	2	0	
25	2	0	
26	2	0	
27	2	0	
28	2	0	
29	2	0	
30	2	0	
31	2	0	
32	2	0	
33	2	0	
34	2	0	
35	2	0	
36	2	0	
37	2	0	
38	2	0	
39	2	0	
40	2	0	
41	2	0	
42	2	0	
43	2	0	
44	2	0	
45	2	0	
46	2	0	
47	2	0	
48	2	0	
49	2	0	
50	2	0	
0	3	0	
1	3	0	
2	3	0	
3	3	0	
4	3	0	
5	3	0	
6	3	0	
7	3	0	
8	3	0	
9	3	0	
10	3	0	
11	3	0	
12	3	0	
13	3	0	
14	3	0	
15	3	0	
16	3	0	
17	3	0	
18	3	0	
19	3	0	
20	3	0	
21	3	0	
22	3	0	
23	3	0	
24	3	0	
25	3	0	
26	3	0	
27	3	0	
28	3	0	
29	3	0	
30	3	0	
31	3	0	
32	3	0	
33	3	0	
34	3	0	
35	3	0	
36	3	0	
37	3	0	
38	3	0	
39	3	0	
40	3	0	
41	3	0	
42	3	0	
43	3	0	
44	3	0	
45	3	0	
46	3	0	
47	3	0	
48	3	0	
49	3	0	
50	3	0	
0	4	0	
1	4	0	
2	4	0	
3	4	0	
4	4	0	
5	4	0	
6	4	0	
7	4	0	
8	4	0	
9	4	0	
10	4	0	
11	4	0	
12	4	0	
13	4	0	
14	4	0	
15	4	0	
16	4	0	
17	4	0	
18	4	0	
19	4	0	
20	4	0	
21	4	0	
22	4	0	
23	4	0	
24	4	0	
25	4	0	
26	4	0	
27	4	0	
28	4	0	
29	4	0	
30	4	0	
31	4	0	
32	4	0	
33	4	0	
34	4	0	
35	4	0	
36	4	0	
37	4	0	
38	4	0	
39	4	0	
40	4	0	
41	4	0	
42	4	0	
43	4	0	
44	4	0	
45	4	0	
46	4	0	
47	4	0	
48	4	0	
49	4	0	
50	4	0	
0	5	0	
1	5	0	
2	5	0	
3	5	0	
4	5	0	
5	5	0	
6	5	0	
7	5	0	
8	5	0	
9	5	0	
10	5	0	
11	5	0	
12	5	0	
13	5	0	
14	5	0	
15	5	0	
16	5	0	
17	5	0	
18	5	0	
19	5	0	
20	5	0	
21	5	0	
22	5	0	
23	5	0	
24	5	0	
25	5	0	
26	5	0	
27	5	0	
28	5	0	
29	5	0	
30	5	0	
31	5	0	
32	5	0	
33	5	0	
34	5	0	
35	5	0	
36	5	0	
37	5	0	
38	5	0	
39	5	0	
40	5	0	
41	5	0	
42	5	0	
43	5	0	
44	5	0	
45	5	0	
46	5	0	
47	5	0	
48	5	0	
49	5	0	
50	5	0	
0	0	1	
1	0	1	
2	0	1	
3	0	1	
4	0	1	
5	0	1	
6	0	1	
7	0	1	
8	0	1	
9	0	1	
10	0	1	
11	0	1	
12	0	1	
13	0	1	
14	0	1	
15	0	1	
16	0	1	
17	0	1	
18	0	1	
19	0	1	
20	0	1	
21	0	1	
22	0	1	
23	0	1	
24	0	1	
25	0	1	
26	0	1	
27	0	1	
28	0	1	
29	0	1	
30	0	1	
31	0	1	
32	0	1	
33	0	1	
34	0	1	
35	0	1	
36	0	1	
37	0	1	
38	0	1	
39	0	1	
40	0	1	
41	0	1	
42	0	1	
43	0	1	
44	0	1	
45	0	1	
46	0	1	
47	0	1	
48	0	1	
49	0	1	
50	0	1	
0	1	1	
1	1	1	
2	1	1	
3	1	1	
4	1	1	
5	1	1	
6	1	1	
7	1	1	
8	1	1	
9	1	1	
10	1	1	
11	1	1	
12	1	1	
13	1	1	
14	1	1	
15	1	1	
16	1	1	
17	1	1	
18	1	1	
19	1	1	
20	1	1	
21	1	1	
22	1	1	
23	1	1	
24	1	1	
25	1	1	
26	1	1	
27	1	1	
28	1	1	
29	1	1	
30	1	1	
31	1	1	
32	1	1	
33	1	1	
34	1	1	
35	1	1	
36	1	1	
37	1	1	
38	1	1	
39	1	1	
40	1	1	
41	1	1	
42	1	1	
43	1	1	
44	1	1	
45	1	1	
46	1	1	
47	1	1	
48	1	1	
49	1	1	
50	1	1	
0	2	1	
1	2	1	
2	2	1	
3	2	1	
4	2	1	
5	2	1	
6	2	1	
7	2	1	
8	2	1	
9	2	1	
10	2	1	
11	2	1	
12	2	1	
13	2	1	
14	2	1	
15	2	1	
16	2	1	
17	2	1	
18	2	1	
19	2	1	
20	2	1	
21	2	1	
22	2	1	
23	2	1	
24	2	1	
25	2	1	
26	2	1	
27	2	1	
28	2	1	
29	2	1	
30	2	1	
31	2	1	
32	2	1	
33	2	1	
34	2	1	
35	2	1	
36	2	1	
37	2	1	
38	2	1	
39	2	1	
40	2	1	
41	2	1	
42	2	1	
43	2	1	
44	2	1	
45	2	1	
46	2	1	
47	2	1	
48	2	1	
49	2	1	
50	2	1	
0	3	1	
1	3	1	
2	3	1	
3	3	1	
4	3	1	
5	3	1	
6	3	1	
7	3	1	
8	3	1	
9	3	1	
10	3	1	
11	3	1	
12	3	1	
13	3	1	
14	3	1	
15	3	1	
16	3	1	
17	3	1	
18	3	1	
19	3	1	
20	3	1	
21	3	1	
22	3	1	
23	3	1	
24	3	1	
25	3	1	
26	3	1	
27	3	1	
28	3	1	
29	3	1	
30	3	1	
31	3	1	
32	3	1	
33	3	1	
34	3	1	
35	3	1	
36	3	1	
37	3	1	
38	3	1	
39	3	1	
40	3	1	
41	3	1	
42	3	1	
43	3	1	
44	3	1	
45	3	1	
46	3	1	
47	3	1	
48	3	1	
49	3	1	
50	3	1	
0	4	1	
1	4	1	
2	4	1	
3	4	1	
4	4	1	
5	4	1	
6	4	1	
7	4	1	
8	4	1	
9	4	1	
10	4	1	
11	4	1	
12	4	1	
13	4	1	
14	4	1	
15	4	1	
16	4	1	
17	4	1	
18	4	1	
19	4	1	
20	4	1	
21	4	1	
22	4	1	
23	4	1	
24	4	1	
25	4	1	
26	4	1	
27	4	1	
28	4	1	
29	4	1	
30	4	1	
31	4	1	
32	4	1	
33	4	1	
34	4	1	
35	4	1	
36	4	1	
37	4	1	
38	4	1	
39	4	1	
40	4	1	
41	4	1	
42	4	1	
43	4	1	
44	4	1	
45	4	1	
46	4	1	
47	4	1	
48	4	1	
49	4	1	
50	4	1	
0	5	1	
1	5	1	
2	5	1	
3	5	1	
4	5	1	
5	5	1	
6	5	1	
7	5	1	
8	5	1	
9	5	1	
10	5	1	
11	5	1	
12	5	1	
13	5	1	
14	5	1	
15	5	1	
16	5	1	
17	5	1	
18	5	1	
19	5	1	
20	5	1	
21	5	1	
22	5	1	
23	5	1	
24	5	1	
25	5	1	
26	5	1	
27	5	1	
28	5	1	
29	5	1	
30	5	1	
31	5	1	
32	5	1	
33	5	1	
34	5	1	
35	5	1	
36	5	1	
37	5	1	
38	5	1	
39	5	1	
40	5	1	
41	5	1	
42	5	1	
43	5	1	
44	5	1	
45	5	1	
46	5	1	
47	5	1	
48	5	1	
49	5	1	
50	5	1	
0	0	2	
1	0	2	
2	0	2	
3	0	2	
4	0	2	
5	0	2	
6	0	2	
7	0	2	
8	0	2	
9	0	2	
10	0	2	
11	0	2	
12	0	2	
13	0	2	
14	0	2	
15	0	2	
16	0	2	
17	0	2	
18	0	2	
19	0	2	
20	0	2	
21	0	2	
22	0	2	
23	0	2	
24	0	2	
25	0	2	
26	0	2	
27	0	2	
28	0	2	
29	0	2	
30	0	2	
31	0	2	
32	0	2	
33	0	2	
34	0	2	
35	0	2	
36	0	2	
37	0	2	
38	0	2	
39	0	2	
40	0	2	
41	0	2	
42	0	2	
43	0	2	
44	0	2	
45	0	2	
46	0	2	
47	0	2	
48	0	2	
49	0	2	
50	0	2	
0	1	2	
1	1	2	
2	1	2	
3	1	2	
4	1	2	
5	1	2	
6	1	2	
7	1	2	
8	1	2	
9	1	2	
10	1	2	
11	1	2	
12	1	2	
13	1	2	
14	1	2	
15	1	2	
16	1	2	
17	1	2	
18	1	2	
19	1	2	
20	1	2	
21	1	2	
22	1	2	
23	1	2	
24	1	2	
25	1	2	
26	1	2	
27	1	2	
28	1	2	
29	1	2	
30	1	2	
31	1	2	
32	1	2	
33	1	2	
34	1	2	
35	1	2	
36	1	2	
37	1	2	
38	1	2	
39	1	2	
40	1	2	
41	1	2	
42	1	2	
43	1	2	
44	1	2	
45	1	2	
46	1	2	
47	1	2	
48	1	2	
49	1	2	
50	1	2	
0	2	2	
1	2	2	
2	2	2	
3	2	2	
4	2	2	
5	2	2	
6	2	2	
7	2	2	
8	2	2	
9	2	2	
10	2	2	
11	2	2	
12	2	2	
13	2	2	
14	2	2	
15	2	2	
16	2	2	
17	2	2	
18	2	2	
19	2	2	
20	2	2	
21	2	2	
22	2	2	
23	2	2	
24	2	2	
25	2	2	
26	2	2	
27	2	2	
28	2	2	
29	2	2	
30	2	2	
31	2	2	
32	2	2	
33	2	2	
34	2	2	
35	2	2	
36	2	2	
37	2	2	
38	2	2	
39	2	2	
40	2	2	
41	2	2	
42	2	2	
43	2	2	
44	2	2	
45	2	2	
46	2	2	
47	2	2	
48	2	2	
49	2	2	
50	2	2	
0	3	2	
1	3	2	
2	3	2	
3	3	2	
4	3	2	
5	3	2	
6	3	2	
7	3	2	
8	3	2	
9	3	2	
10	3	2	
11	3	2	
12	3	2	
13	3	2	
14	3	2	
15	3	2	
16	3	2	
17	3	2	
18	3	2	
19	3	2	
20	3	2	
21	3	2	
22	3	2	
23	3	2	
24	3	2	
25	3	2	
26	3	2	
27	3	2	
28	3	2	
29	3	2	
30	3	2	
31	3	2	
32	3	2	
33	3	2	
34	3	2	
35	3	2	
36	3	2	
37	3	2	
38	3	2	
39	3	2	
40	3	2	
41	3	2	
42	3	2	
43	3	2	
44	3	2	
45	3	2	
46	3	2	
47	3	2	
48	3	2	
49	3	2	
50	3	2	
0	4	2	
1	4	2	
2	4	2	
3	4	2	
4	4	2	
5	4	2	
6	4	2	
7	4	2	
8	4	2	
9	4	2	
10	4	2	
11	4	2	
12	4	2	
13	4	2	
14	4	2	
15	4	2	
16	4	2	
17	4	2	
18	4	2	
19	4	2	
20	4	2	
21	4	2	
22	4	2	
23	4	2	
24	4	2	
25	4	2	
26	4	2	
27	4	2	
28	4	2	
29	4	2	
30	4	2	
31	4	2	
32	4	2	
33	4	2	
34	4	2	
35	4	2	
36	4	2	
37	4	2	
38	4	2	
39	4	2	
40	4	2	
41	4	2	
42	4	2	
43	4	2	
44	4	2	
45	4	2	
46	4	2	
47	4	2	
48	4	2	
49	4	2	
50	4	2	
0	5	2	
1	5	2	
2	5	2	
3	5	2	
4	5	2	
5	5	2	
6	5	2	
7	5	2	
8	5	2	
9	5	2	
10	5	2	
11	5	2	
12	5	2	
13	5	2	
14	5	2	
15	5	2	
16	5	2	
17	5	2	
18	5	2	
19	5	2	
20	5	2	
21	5	2	
22	5	2	
23	5	2	
24	5	2	
25	5	2	
26	5	2	
27	5	2	
28	5	2	
29	5	2	
30	5	2	
31	5	2	
32	5	2	
33	5	2	
34	5	2	
35	5	2	
36	5	2	
37	5	2	
38	5	2	
39	5	2	
40	5	2	
41	5	2	
42	5	2	
43	5	2	
44	5	2	
45	5	2	
46	5	2	
47	5	2	
48	5	2	
49	5	2	
50	5	2	
0	0	3	
1	0	3	
2	0	3	
3	0	3	
4	0	3	
5	0	3	
6	0	3	
7	0	3	
8	0	3	
9	0	3	
10	0	3	
11	0	3	
12	0	3	
13	0	3	
14	0	3	
15	0	3	
16	0	3	
17	0	3	
18	0	3	
19	0	3	
20	0	3	
21	0	3	
22	0	3	
23	0	3	
24	0	3	
25	0	3	
26	0	3	
27	0	3	
28	0	3	
29	0	3	
30	0	3	
31	0	3	
32	0	3	
33	0	3	
34	0	3	
35	0	3	
36	0	3	
37	0	3	
38	0	3	
39	0	3	
40	0	3	
41	0	3	
42	0	3	
43	0	3	
44	0	3	
45	0	3	
46	0	3	
47	0	3	
48	0	3	
49	0	3	
50	0	3	
0	1	3	
1	1	3	
2	1	3	
3	1	3	
4	1	3	
5	1	3	
6	1	3	
7	1	3	
8	1	3	
9	1	3	
10	1	3	
11	1	3	
12	1	3	
13	1	3	
14	1	3	
15	1	3	
16	1	3	
17	1	3	
18	1	3	
19	1	3	
20	1	3	
21	1	3	
22	1	3	
23	1	3	
24	1	3	
25	1	3	
26	1	3	
27	1	3	
28	1	3	
29	1	3	
30	1	3	
31	1	3	
32	1	3	
33	1	3	
34	1	3	
35	1	3	
36	1	3	
37	1	3	
38	1	3	
39	1	3	
40	1	3	
41	1	3	
42	1	3	
43	1	3	
44	1	3	
45	1	3	
46	1	3	
47	1	3	
48	1	3	
49	1	3	
50	1	3	
0	2	3	
1	2	3	
2	2	3	
3	2	3	
4	2	3	
5	2	3	
6	2	3	
7	2	3	
8	2	3	
9	2	3	
10	2	3	
11	2	3	
12	2	3	
13	2	3	
14	2	3	
15	2	3	
16	2	3	
17	2	3	
18	2	3	
19	2	3	
20	2	3	
21	2	3	
22	2	3	
23	2	3	
24	2	3	
25	2	3	
26	2	3	
27	2	3	
28	2	3	
29	2	3	
30	2	3	
31	2	3	
32	2	3	
33	2	3	
34	2	3	
35	2	3	
36	2	3	
37	2	3	
38	2	3	
39	2	3	
40	2	3	
41	2	3	
42	2	3	
43	2	3	
44	2	3	
45	2	3	
46	2	3	
47	2	3	
48	2	3	
49	2	3	
50	2	3	
0	3	3	
1	3	3	
2	3	3	
3	3	3	
4	3	3	
5	3	3	
6	3	3	
7	3	3	
8	3	3	
9	3	3	
10	3	3	
11	3	3	
12	3	3	
13	3	3	
14	3	3	
15	3	3	
16	3	3	
17	3	3	
18	3	3	
19	3	3	
20	3	3	
21	3	3	
22	3	3	
23	3	3	
24	3	3	
25	3	3	
26	3	3	
27	3	3	
28	3	3	
29	3	3	
30	3	3	
31	3	3	
32	3	3	
33	3	3	
34	3	3	
35	3	3	
36	3	3	
37	3	3	
38	3	3	
39	3	3	
40	3	3	
41	3	3	
42	3	3	
43	3	3	
44	3	3	
45	3	3	
46	3	3	
47	3	3	
48	3	3	
49	3	3	
50	3	3	
0	4	3	
1	4	3	
2	4	3	
3	4	3	
4	4	3	
5	4	3	
6	4	3	
7	4	3	
8	4	3	
9	4	3	
10	4	3	
11	4	3	
12	4	3	
13	4	3	
14	4	3	
15	4	3	
16	4	3	
17	4	3	
18	4	3	
19	4	3	
20	4	3	
21	4	3	
22	4	3	
23	4	3	
24	4	3	
25	4	3	
26	4	3	
27	4	3	
28	4	3	
29	4	3	
30	4	3	
31	4	3	
32	4	3	
33	4	3	
34	4	3	
35	4	3	
36	4	3	
37	4	3	
38	4	3	
39	4	3	
40	4	3	
41	4	3	
42	4	3	
43	4	3	
44	4	3	
45	4	3	
46	4	3	
47	4	3	
48	4	3	
49	4	3	
50	4	3	
0	5	3	
1	5	3	
2	5	3	
3	5	3	
4	5	3	
5	5	3	
6	5	3	
7	5	3	
8	5	3	
9	5	3	
10	5	3	
11	5	3	
12	5	3	
13	5	3	
14	5	3	
15	5	3	
16	5	3	
17	5	3	
18	5	3	
19	5	3	
20	5	3	
21	5	3	
22	5	3	
23	5	3	
24	5	3	
25	5	3	
26	5	3	
27	5	3	
28	5	3	
29	5	3	
30	5	3	
31	5	3	
32	5	3	
33	5	3	
34	5	3	
35	5	3	
36	5	3	
37	5	3	
38	5	3	
39	5	3	
40	5	3	
41	5	3	
42	5	3	
43	5	3	
44	5	3	
45	5	3	
46	5	3	
47	5	3	
48	5	3	
49	5	3	
50	5	3	
0	0	4	
1	0	4	
2	0	4	
3	0	4	
4	0	4	
5	0	4	
6	0	4	
7	0	4	
8	0	4	
9	0	4	
10	0	4	
11	0	4	
12	0	4	
13	0	4	
14	0	4	
15	0	4	
16	0	4	
17	0	4	
18	0	4	
19	0	4	
20	0	4	
21	0	4	
22	0	4	
23	0	4	
24	0	4	
25	0	4	
26	0	4	
27	0	4	
28	0	4	
29	0	4	
30	0	4	
31	0	4	
32	0	4	
33	0	4	
34	0	4	
35	0	4	
36	0	4	
37	0	4	
38	0	4	
39	0	4	
40	0	4	
41	0	4	
42	0	4	
43	0	4	
44	0	4	
45	0	4	
[...]
POINT_DATA	1836
VECTORS u float
-2.141e-012	-5.7086e-013	-8.16363e-013	
-0.0178496	-0.00612054	-0.00986693	
-0.0345021	-0.0149311	-0.012115	
-0.0513903	-0.0316288	-0.0129583	
-0.0686246	-0.055315	-0.0129752	
-0.0860467	-0.0857352	-0.0127555	
-0.103628	-0.122627	-0.0124682	
-0.121389	-0.165815	-0.0121729	
-0.139377	-0.215145	-0.0118809	
-0.157646	-0.270473	-0.0115928	
-0.176252	-0.331656	-0.0113071	
-0.195246	-0.398549	-0.0110226	
-0.214673	-0.471009	-0.0107389	
-0.234575	-0.54889	-0.0104556	
-0.254989	-0.632048	-0.0101727	
-0.275946	-0.720337	-0.00988999	
-0.297473	-0.813612	-0.00960749	
-0.319595	-0.911729	-0.00932514	
-0.342328	-1.01454	-0.00904288	
-0.365688	-1.12191	-0.00876067	
-0.389686	-1.23368	-0.00847846	
-0.414327	-1.34972	-0.00819623	
-0.439615	-1.46988	-0.00791393	
-0.465548	-1.59401	-0.00763154	
-0.492123	-1.72198	-0.00734903	
-0.519331	-1.85364	-0.00706638	
-0.547162	-1.98886	-0.00678357	
-0.575602	-2.12748	-0.0065006	
-0.604634	-2.26937	-0.00621744	
-0.634238	-2.41439	-0.0059341	
-0.664391	-2.5624	-0.00565056	
-0.695068	-2.71326	-0.00536684	
-0.726242	-2.86683	-0.00508291	
-0.757883	-3.02297	-0.00479881	
-0.789958	-3.18154	-0.00451452	
-0.822433	-3.34241	-0.00423006	
-0.855272	-3.50545	-0.00394544	
-0.888436	-3.6705	-0.00366068	
-0.921886	-3.83745	-0.00337578	
-0.95558	-4.00614	-0.00309077	
-0.989475	-4.17645	-0.00280565	
-1.02353	-4.34824	-0.00252044	
-1.05769	-4.52138	-0.00223525	
-1.09191	-4.69572	-0.00195049	
-1.12616	-4.87114	-0.0016677	
-1.16037	-5.04749	-0.00139151	
-1.1945	-5.22464	-0.00113421	
-1.22849	-5.40242	-0.000922795	
-1.26223	-5.58067	-0.000807874	
-1.29563	-5.75917	-0.000809586	
-1.32873	-5.93768	-0.000787241	
-1.30744e-012	1.65594e-013	-5.4129e-013	
-0.0101786	-0.00133113	-0.00592514	
-0.0203882	-0.0111486	-0.00727275	
-0.0304254	-0.0280647	-0.00767082	
-0.0407795	-0.0521598	-0.00766556	
-0.0514486	-0.0830581	-0.00752899	
-0.0624391	-0.120521	-0.00735769	
-0.0737737	-0.164359	-0.00718263	
-0.0854976	-0.214409	-0.00701031	
-0.0976644	-0.270519	-0.00684069	
-0.110328	-0.332539	-0.00667266	
-0.12354	-0.400319	-0.00650547	
-0.137346	-0.473708	-0.00633869	
-0.151787	-0.552558	-0.00617215	
-0.166899	-0.636717	-0.00600574	
-0.182715	-0.726037	-0.00583943	
-0.19926	-0.820367	-0.00567316	
-0.216556	-0.919558	-0.00550693	
-0.234623	-1.02346	-0.00534068	
-0.253474	-1.13193	-0.00517441	
-0.273118	-1.24481	-0.00500807	
-0.293561	-1.36195	-0.00484166	
-0.314805	-1.48322	-0.00467514	
-0.336849	-1.60846	-0.00450851	
-0.359687	-1.73753	-0.00434175	
-0.383311	-1.87027	-0.00417484	
-0.407709	-2.00655	-0.00400778	
-0.432866	-2.14623	-0.00384055	
-0.458764	-2.28915	-0.00367315	
-0.485382	-2.43518	-0.00350558	
-0.512697	-2.58417	-0.00333783	
-0.540683	-2.73598	-0.0031699	
-0.569311	-2.89047	-0.0030018	
-0.598551	-3.0475	-0.00283352	
-0.628369	-3.20693	-0.00266508	
-0.658731	-3.36862	-0.00249647	
-0.689598	-3.53243	-0.0023277	
-0.720933	-3.69822	-0.00215879	
-0.752694	-3.86586	-0.00198974	
-0.78484	-4.0352	-0.00182056	
-0.817326	-4.20612	-0.00165125	
-0.850108	-4.37847	-0.00148182	
-0.88314	-4.55212	-0.00131231	
-0.916373	-4.72692	-0.00114292	
-0.949762	-4.90275	-0.0009744	
-0.983256	-5.07947	-0.000809132	
-1.01681	-5.25692	-0.00065363	
-1.05037	-5.43496	-0.000522658	
-1.08386	-5.61342	-0.000440853	
-1.11718	-5.79204	-0.000437906	
-1.15023	-5.97049	-0.000387235	
-4.22115e-013	2.41071e-013	-1.73295e-013	
-0.003208	0.000402596	-0.00198627	
-0.00642448	-0.00925613	-0.00238179	
-0.00985619	-0.0266227	-0.00252276	
-0.0135166	-0.0510979	-0.00250753	
-0.0175401	-0.0824356	-0.00246072	
-0.0219898	-0.120414	-0.00240295	
-0.026924	-0.164844	-0.00234465	
-0.0324012	-0.215555	-0.00228755	
-0.0384794	-0.272388	-0.0022316	
-0.0452138	-0.335186	-0.00217632	
-0.0526553	-0.403793	-0.00212139	
-0.0608499	-0.478054	-0.00206662	
-0.0698384	-0.557815	-0.00201191	
-0.0796569	-0.642919	-0.00195724	
-0.0903364	-0.733213	-0.00190257	
-0.101903	-0.828541	-0.0018479	
-0.114379	-0.92875	-0.00179322	
-0.127781	-1.03369	-0.00173851	
-0.142123	-1.1432	-0.00168377	
-0.157414	-1.25713	-0.001629	
-0.173658	-1.37533	-0.00157418	
-0.190856	-1.49765	-0.0015193	
-0.209007	-1.62395	-0.00146437	
-0.228105	-1.75405	-0.00140937	
-0.248139	-1.88783	-0.0013543	
-0.269097	-2.02513	-0.00129917	
-0.290964	-2.16581	-0.00124396	
-0.313721	-2.30971	-0.00118867	
-0.337345	-2.4567	-0.0011333	
-0.361813	-2.60662	-0.00107786	
-0.387097	-2.75934	-0.00102234	
-0.413169	-2.9147	-0.000966736	
-0.439997	-3.07257	-0.000911057	
-0.467547	-3.23281	-0.000855302	
-0.495782	-3.39527	-0.000799473	
-0.524666	-3.55981	-0.000743572	
-0.554158	-3.72629	-0.000687602	
-0.584217	-3.89458	-0.000631567	
-0.614801	-4.06453	-0.000575473	
-0.645864	-4.236	-0.000519323	
-0.677362	-4.40887	-0.00046312	
-0.709247	-4.58298	-0.000406853	
-0.741472	-4.75821	-0.000350492	
-0.773988	-4.93441	-0.000293997	
-0.806743	-5.11145	-0.000237451	
-0.839688	-5.28918	-0.00018152	
-0.87277	-5.46744	-0.000129835	
-0.905933	-5.64609	-8.93473e-005	
-0.93907	-5.82477	-0.000123955	
-0.97202	-6.00322	-0.000141369	
4.49203e-013	2.31426e-013	1.84658e-013	
0.00356605	0.000203084	0.00209182	
0.00708969	-0.00964821	0.0024905	
0.0104659	-0.0272683	0.00261769	
0.0134803	-0.0520646	0.00259237	
0.0160689	-0.0837991	0.0025425	
0.0181283	-0.12225	0.0024854	
0.0195703	-0.167224	0.00242884	
0.0203204	-0.218547	0.00237323	
0.0203142	-0.276052	0.0023182	
0.0194946	-0.339578	0.00226341	
0.0178103	-0.408962	0.00220871	
0.0152153	-0.484045	0.00215406	
0.011669	-0.564666	0.00209943	
0.00713566	-0.650665	0.00204483	
0.00158468	-0.741883	0.00199024	
-0.0050099	-0.83816	0.00193564	
-0.0126694	-0.939338	0.00188103	
-0.0214106	-1.04526	0.0018264	
-0.0312459	-1.15577	0.00177174	
-0.0421839	-1.2707	0.00171703	
-0.0542287	-1.38991	0.00166227	
-0.0673808	-1.51324	0.00160746	
-0.0816369	-1.64054	0.00155259	
-0.0969903	-1.77164	0.00149764	
-0.113431	-1.90641	0.00144263	
-0.130945	-2.04468	0.00138754	
-0.149515	-2.18631	0.00133238	
-0.169123	-2.33115	0.00127713	
-0.189746	-2.47905	0.0012218	
-0.211359	-2.62985	0.00116639	
-0.233933	-2.78343	0.0011109	
-0.257439	-2.93962	0.00105533	
-0.281844	-3.09829	0.000999678	
-0.307115	-3.25929	0.000943946	
-0.333213	-3.42247	0.000888137	
-0.3601	-3.5877	0.000832254	
-0.387737	-3.75483	0.000776298	
-0.416081	-3.92373	0.000720269	
-0.445089	-4.09424	0.000664165	
-0.474716	-4.26624	0.000607982	
-0.504916	-4.43957	0.000551723	
-0.53564	-4.61411	0.000495439	
-0.566842	-4.78972	0.00043936	
-0.598469	-4.96625	0.000384209	
-0.630471	-5.14357	0.000331876	
-0.662794	-5.32154	0.000286397	
-0.69538	-5.5	0.000255582	
-0.728185	-5.67878	0.000240076	
-0.761105	-5.85753	0.000218577	
-0.793996	-6.03597	8.30254e-005	
1.32529e-012	1.41115e-013	5.48347e-013	
0.0104109	-0.00187687	0.0059644	
0.0208928	-0.0122645	0.0072722	
0.0308529	-0.0299313	0.00763935	
0.0405208	-0.0549915	0.00762124	
0.0497076	-0.0870862	0.00748489	
0.0582607	-0.125975	0.00731995	
0.0660601	-0.171455	0.00715262	
0.0730185	-0.223348	0.00698748	
0.0790666	-0.281483	0.0068241	
0.0841458	-0.345693	0.00666162	
0.0882043	-0.415811	0.00649952	
0.0911962	-0.491672	0.00633759	
0.0930809	-0.57311	0.00617572	
0.093823	-0.659961	0.00601387	
0.0933922	-0.752059	0.00585198	
0.0917628	-0.849242	0.00569003	
0.0889141	-0.951347	0.00552799	
0.0848297	-1.05821	0.00536581	
0.0794978	-1.16967	0.00520347	
0.0729105	-1.28557	0.00504096	
0.0650643	-1.40574	0.00487823	
0.0559593	-1.53004	0.00471529	
0.0455996	-1.65829	0.0045521	
0.0339927	-1.79035	0.00438865	
0.0211496	-1.92606	0.00422493	
0.00708469	-2.06526	0.00406093	
-0.0081847	-2.2078	0.00389665	
-0.0246381	-2.35354	0.00373207	
-0.0422524	-2.5023	0.00356719	
-0.0610015	-2.65396	0.003402	
-0.0808569	-2.80835	0.00323652	
-0.101788	-2.96534	0.00307073	
-0.123761	-3.12476	0.00290465	
-0.146741	-3.28648	0.00273827	
-0.170691	-3.45035	0.0025716	
-0.195571	-3.61623	0.00240465	
-0.22134	-3.78396	0.00223743	
-0.247957	-3.95342	0.00206994	
-0.275376	-4.12446	0.00190218	
-0.303552	-4.29693	0.00173415	
-0.33244	-4.4707	0.00156588	
-0.36199	-4.64563	0.00139747	
-0.392153	-4.82157	0.00122939	
-0.422879	-4.9984	0.00106304	
-0.454115	-5.17596	0.000902069	
-0.485809	-5.35412	0.000754576	
-0.517906	-5.53273	0.000634499	
-0.550354	-5.71158	0.000552683	
-0.583068	-5.8904	0.000506946	
-0.615895	-6.06887	0.000344171	
2.1728e-012	-6.00086e-013	8.17171e-013	
0.0179317	-0.00680238	0.00974122	
0.0347978	-0.0165426	0.0118762	
0.0514733	-0.0344885	0.0126514	
0.0679022	-0.0598053	0.0126507	
0.0837318	-0.0922498	0.0124403	
0.0987799	-0.131549	0.0121722	
0.112922	-0.177503	0.0118974	
0.126069	-0.229932	0.0116246	
0.138153	-0.288661	0.0113541	
0.149114	-0.35352	0.0110847	
0.1589	-0.424337	0.0108158	
0.167465	-0.50094	0.0105471	
0.174769	-0.583159	0.0102784	
0.180776	-0.670825	0.0100097	
0.185456	-0.763768	0.00974079	
0.188784	-0.861819	0.00947174	
0.19074	-0.964812	0.00920244	
0.191308	-1.07258	0.00893284	
0.190476	-1.18496	0.0086629	
0.188237	-1.30178	0.00839258	
0.184588	-1.42288	0.00812183	
0.17953	-1.5481	0.00785064	
0.173068	-1.67728	0.00757896	
0.16521	-1.81026	0.00730678	
0.155967	-1.94687	0.00703407	
0.145356	-2.08697	0.00676082	
0.133393	-2.23039	0.00648701	
0.1201	-2.37697	0.00621263	
0.105501	-2.52657	0.00593768	
0.0896231	-2.67904	0.00566214	
0.072495	-2.83421	0.00538603	
0.0541485	-2.99195	0.00510934	
0.0346175	-3.15209	0.00483207	
0.013938	-3.31449	0.00455423	
-0.00785198	-3.47901	0.00427583	
-0.0307127	-3.6455	0.00399688	
-0.0546025	-3.8138	0.0037174	
-0.0794784	-3.98379	0.00343739	
-0.105296	-4.15531	0.00315686	
-0.132009	-4.32822	0.00287581	
-0.15957	-4.50239	0.00259431	
-0.187931	-4.67766	0.00231252	
-0.217043	-4.85391	0.00203116	
-0.246854	-5.03098	0.0017524	
-0.277313	-5.20875	0.00148191	
-0.308371	-5.38706	0.00123263	
-0.339989	-5.56574	0.00102786	
-0.37213	-5.7446	0.000904495	
-0.40472	-5.92335	0.000858337	
-0.437537	-6.10189	0.00075538	
-1.80411e-012	-5.95435e-013	-1.71179e-013	
-0.015979	-0.00872506	-0.00469076	
-0.0336147	-0.0188753	-0.00710507	
-0.0512178	-0.0358208	-0.00772808	
-0.0688215	-0.0595315	-0.00779312	
-0.0864227	-0.0898762	-0.00765915	
-0.104093	-0.12667	-0.00748173	
-0.121907	-0.169755	-0.0073003	
-0.139935	-0.218984	-0.00712307	
-0.158239	-0.274211	-0.00694937	
-0.176876	-0.335294	-0.00677766	
-0.195897	-0.402088	-0.00660693	
-0.215349	-0.474448	-0.0064367	
-0.235273	-0.55223	-0.00626677	
-0.255706	-0.635288	-0.00609704	
-0.276679	-0.723479	-0.00592747	
-0.29822	-0.816656	-0.00575802	
-0.320352	-0.914674	-0.00558866	
-0.343094	-1.01739	-0.00541937	
-0.36646	-1.12466	-0.00525012	
-0.39046	-1.23634	-0.00508088	
-0.415102	-1.35228	-0.00491163	
-0.440388	-1.47234	-0.00474235	
-0.466318	-1.59638	-0.00457302	
-0.492887	-1.72425	-0.00440363	
-0.520087	-1.85582	-0.00423416	
-0.547908	-1.99094	-0.00406461	
-0.576337	-2.12947	-0.00389497	
-0.605355	-2.27127	-0.00372522	
-0.634943	-2.41619	-0.00355537	
-0.66508	-2.56411	-0.00338541	
-0.695739	-2.71488	-0.00321535	
-0.726893	-2.86835	-0.00304517	
-0.758512	-3.0244	-0.0028749	
-0.790564	-3.18289	-0.00270452	
-0.823015	-3.34367	-0.00253405	
-0.855829	-3.50662	-0.00236349	
-0.888967	-3.67158	-0.00219285	
-0.92239	-3.83844	-0.00202214	
-0.956056	-4.00704	-0.00185136	
-0.989922	-4.17727	-0.00168053	
-1.02394	-4.34897	-0.00150965	
-1.05808	-4.52202	-0.00133877	
-1.09227	-4.69628	-0.0011682	
-1.12648	-4.87161	-0.000999092	
-1.16066	-5.04788	-0.000835317	
-1.19475	-5.22495	-0.000687977	
-1.2287	-5.40269	-0.000583781	
-1.26245	-5.58096	-0.00056506	
-1.29592	-5.75955	-0.000664596	
-1.32911	-5.93817	-0.000659815	
-1.01877e-012	8.80058e-014	-1.10289e-013	
-0.00853979	-0.00384816	-0.0028214	
-0.0195775	-0.0147216	-0.00432659	
-0.0302899	-0.0320726	-0.00465143	
-0.040974	-0.0562597	-0.0046553	
-0.0518075	-0.0871219	-0.00455946	
-0.0628822	-0.124503	-0.00444658	
-0.0742689	-0.168245	-0.00433584	
-0.0860325	-0.218197	-0.00422955	
-0.0982335	-0.274209	-0.00412618	
-0.110928	-0.336131	-0.0040243	
-0.124168	-0.403813	-0.00392309	
-0.137999	-0.477105	-0.00382219	
-0.152462	-0.555857	-0.00372144	
-0.167593	-0.63992	-0.0036208	
-0.183425	-0.729143	-0.00352022	
-0.199983	-0.823377	-0.00341969	
-0.217291	-0.922472	-0.0033192	
-0.235366	-1.02628	-0.00321871	
-0.254222	-1.13465	-0.00311823	
-0.27387	-1.24744	-0.00301773	
-0.294314	-1.36449	-0.00291719	
-0.315557	-1.48566	-0.00281662	
-0.337597	-1.61081	-0.00271599	
-0.360429	-1.73978	-0.0026153	
-0.384045	-1.87243	-0.00251454	
-0.408434	-2.00862	-0.0024137	
-0.433579	-2.1482	-0.00231279	
-0.459464	-2.29104	-0.00221178	
-0.486067	-2.43697	-0.0021107	
-0.513365	-2.58587	-0.00200952	
-0.541333	-2.73759	-0.00190825	
-0.569942	-2.89199	-0.0018069	
-0.59916	-3.04893	-0.00170546	
-0.628956	-3.20827	-0.00160393	
-0.659294	-3.36987	-0.00150233	
-0.690136	-3.53359	-0.00140065	
-0.721445	-3.6993	-0.0012989	
-0.75318	-3.86685	-0.00119708	
-0.785298	-4.03611	-0.0010952	
-0.817756	-4.20693	-0.000993256	
-0.850508	-4.3792	-0.000891239	
-0.883509	-4.55276	-0.000789142	
-0.916712	-4.72748	-0.000687039	
-0.950067	-4.90323	-0.000585386	
-0.983526	-5.07986	-0.000485951	
-1.01704	-5.25725	-0.000393901	
-1.05056	-5.43525	-0.0003219	
-1.08404	-5.61372	-0.000293356	
-1.11741	-5.79247	-0.000341117	
-1.15055	-5.97114	-0.000480002	
-3.23913e-013	1.53858e-013	-3.56006e-014	
-0.00272522	-0.00211341	-0.000935589	
-0.00621284	-0.0127012	-0.0014349	
-0.00990404	-0.0305156	-0.00153829	
-0.0137243	-0.0551134	-0.00153363	
-0.0178415	-0.0864311	-0.00149789	
-0.022353	-0.124337	-0.00145857	
-0.0273337	-0.168677	-0.00142072	
-0.0328499	-0.219294	-0.00138493	
-0.0389626	-0.276032	-0.00135043	
-0.0457282	-0.338735	-0.00131661	
-0.0531978	-0.407248	-0.0012831	
-0.0614176	-0.481415	-0.00124971	
-0.0704283	-0.561081	-0.00121638	
-0.0802661	-0.646092	-0.00118309	
-0.090962	-0.736291	-0.0011498	
-0.102542	-0.831526	-0.00111653	
-0.115029	-0.931643	-0.00108326	
-0.12844	-1.03649	-0.00105	
-0.142788	-1.1459	-0.00101672	
-0.158082	-1.25974	-0.000983441	
-0.174327	-1.37786	-0.000950144	
-0.191525	-1.50009	-0.000916829	
-0.209673	-1.62628	-0.000883492	
-0.228765	-1.7563	-0.00085013	
-0.248791	-1.88999	-0.00081674	
-0.26974	-2.0272	-0.000783322	
-0.291596	-2.16779	-0.000749872	
-0.314339	-2.3116	-0.00071639	
-0.337949	-2.4585	-0.000682874	
-0.362401	-2.60833	-0.000649326	
-0.387667	-2.76096	-0.000615743	
-0.41372	-2.91623	-0.000582127	
-0.440527	-3.07402	-0.000548479	
-0.468054	-3.23416	-0.000514798	
-0.496267	-3.39653	-0.000481087	
-0.525126	-3.56099	-0.000447347	
-0.554592	-3.72739	-0.00041358	
-0.584625	-3.89559	-0.000379789	
-0.615181	-4.06545	-0.000345978	
-0.646216	-4.23684	-0.000312149	
-0.677685	-4.40962	-0.000278298	
-0.709541	-4.58365	-0.000244402	
-0.741735	-4.75879	-0.000210391	
-0.77422	-4.93491	-0.000176127	
-0.806945	-5.11187	-0.00014144	
-0.839859	-5.28953	-0.000106457	
-0.872911	-5.46775	-7.30079e-005	
-0.906047	-5.64639	-5.18361e-005	
-0.939232	-5.82535	-6.57816e-005	
-0.972185	-6.00366	-0.000303147	
3.46451e-013	1.45946e-013	3.64909e-014	
0.00300457	-0.00227525	0.000977466	
0.00669834	-0.0130495	0.00147463	
0.0102053	-0.0311123	0.00156294	
0.0132513	-0.0560329	0.0015511	
0.01582	-0.0877511	0.00151528	
0.0178428	-0.126133	0.00147887	
0.019245	-0.171021	0.0014443	
0.0199571	-0.222253	0.00141116	
0.0199161	-0.279667	0.00137864	
0.0190649	-0.3431	0.00134633	
0.0173521	-0.412393	0.00131407	
0.0147317	-0.487384	0.00128182	
0.011163	-0.567913	0.00124958	
0.00661026	-0.653821	0.00121733	
0.00104264	-0.744948	0.00118508	
-0.00556583	-0.841134	0.00115281	
-0.0132365	-0.942222	0.00112053	
-0.0219863	-1.04805	0.00108821	
-0.0318279	-1.15847	0.00105587	
-0.0427695	-1.27332	0.00102348	
-0.0548156	-1.39244	0.000991052	
-0.0679668	-1.51568	0.000958577	
-0.0822199	-1.64288	0.000926052	
-0.0975681	-1.7739	0.000893473	
-0.114001	-1.90857	0.000860838	
-0.131506	-2.04676	0.000828145	
-0.150066	-2.1883	0.000795391	
-0.169661	-2.33305	0.000762577	
-0.190269	-2.48086	0.0007297	
-0.211865	-2.63158	0.000696761	
-0.234422	-2.78507	0.000663759	
-0.257909	-2.94117	0.000630694	
-0.282294	-3.09976	0.000597567	
-0.307542	-3.26067	0.000564379	
-0.333617	-3.42377	0.000531131	
-0.36048	-3.58891	0.000497824	
-0.388092	-3.75595	0.000464458	
-0.416409	-3.92476	0.000431033	
-0.44539	-4.09519	0.000397544	
-0.474988	-4.2671	0.000363982	
-0.505159	-4.44035	0.000330341	
-0.535855	-4.61481	0.00029665	
-0.567026	-4.79033	0.000263089	
-0.598626	-4.96678	0.000230288	
-0.630602	-5.14402	0.000199944	
-0.662902	-5.32192	0.000175962	
-0.695467	-5.50033	0.000165531	
-0.728227	-5.67912	0.000180518	
-0.761184	-5.85815	0.000213505	
-0.794027	-6.03645	0.000221813	
1.03703e-012	6.70313e-014	1.10563e-013	
0.00877076	-0.00428584	0.00284407	
0.0199527	-0.015694	0.00430273	
0.0304233	-0.0337869	0.00459652	
0.0402764	-0.0589484	0.00458984	
0.0495076	-0.0910203	0.00449596	
0.0580446	-0.129839	0.00438975	
0.0658095	-0.175235	0.00428621	
0.0727306	-0.227039	0.00418626	
0.0787435	-0.285085	0.00408829	
0.0837907	-0.349205	0.00399116	
0.0878204	-0.419234	0.00389432	
0.0907867	-0.495005	0.00379759	
0.0926488	-0.576354	0.00370087	
0.0933713	-0.663115	0.00360415	
0.0929237	-0.755125	0.0035074	
0.0912803	-0.852219	0.00341059	
0.0884202	-0.954234	0.00331371	
0.0843271	-1.06101	0.00321673	
0.0789889	-1.17238	0.00311965	
0.0723978	-1.28819	0.00302244	
0.0645501	-1.40828	0.0029251	
0.055446	-1.53248	0.0028276	
0.0450893	-1.66065	0.00272995	
0.0334875	-1.79262	0.00263213	
0.0206516	-1.92824	0.00253413	
0.00659583	-2.06736	0.00243595	
-0.00866256	-2.20981	0.00233758	
-0.0251032	-2.35546	0.00223902	
-0.0427029	-2.50414	0.00214027	
-0.0614358	-2.65571	0.00204132	
-0.0812735	-2.81001	0.00194217	
-0.102185	-2.96691	0.00184283	
-0.124138	-3.12625	0.00174329	
-0.147096	-3.28788	0.00164357	
-0.171022	-3.45167	0.00154365	
-0.195878	-3.61746	0.00144355	
-0.221622	-3.78511	0.00134327	
-0.248212	-3.95448	0.00124281	
-0.275604	-4.12544	0.00114216	
-0.303752	-4.29782	0.00104132	
-0.33261	-4.47151	0.000940288	
-0.362131	-4.64635	0.000839114	
-0.392266	-4.82221	0.000738134	
-0.422965	-4.99895	0.000638516	
-0.454178	-5.17643	0.000543521	
-0.485855	-5.35452	0.000460481	
-0.517942	-5.53308	0.000402628	
-0.550375	-5.71196	0.000384554	
-0.583093	-5.89092	0.000401478	
-0.615934	-6.0696	0.000435883	
1.83646e-012	-6.22568e-013	1.69204e-013	
0.0160982	-0.0092614	0.0046553	
0.0337754	-0.0202349	0.00697208	
0.0510014	-0.0384229	0.0075358	
0.0676521	-0.0637835	0.00758147	
0.0835419	-0.0961754	0.00745159	
0.0985793	-0.135396	0.0072868	
0.112688	-0.181264	0.00711928	
0.125799	-0.233605	0.00695488	
0.137847	-0.292247	0.00679267	
0.148776	-0.357018	0.00663152	
0.158533	-0.427746	0.00647077	
0.167072	-0.504261	0.00631014	
0.174353	-0.586392	0.00614954	
0.180341	-0.67397	0.00598889	
0.185004	-0.766825	0.00582816	
0.188318	-0.864788	0.00566731	
0.190263	-0.967694	0.0055063	
0.190821	-1.07537	0.00534512	
0.189983	-1.18766	0.00518372	
0.18774	-1.3044	0.00502208	
0.184089	-1.42541	0.00486019	
0.179032	-1.55055	0.00469801	
0.172573	-1.67964	0.00453555	
0.16472	-1.81253	0.00437277	
0.155485	-1.94905	0.00420967	
0.144882	-2.08906	0.00404624	
0.13293	-2.23239	0.00388247	
0.11965	-2.3789	0.00371835	
0.105066	-2.52841	0.00355388	
0.0892037	-2.68079	0.00338905	
0.0720933	-2.83588	0.00322386	
0.053766	-2.99352	0.00305832	
0.0342556	-3.15358	0.00289243	
0.0135981	-3.3159	0.00272619	
-0.00816874	-3.48033	0.00255961	
-0.0310051	-3.64673	0.00239269	
-0.0548694	-3.81496	0.00222544	
-0.0797188	-3.98486	0.00205786	
-0.105509	-4.15629	0.00188995	
-0.132193	-4.32912	0.00172171	
-0.159726	-4.5032	0.00155315	
-0.188058	-4.67839	0.00138441	
-0.21714	-4.85455	0.00121604	
-0.246924	-5.03154	0.00104997	
-0.277359	-5.20922	0.000891572	
-0.308398	-5.38746	0.000753843	
-0.339998	-5.5661	0.000662013	
-0.372127	-5.74498	0.000643917	
-0.404703	-5.92387	0.000709259	
-0.437526	-6.10251	0.000632645	
-1.85288e-012	-6.33055e-013	-6.46794e-014	
-0.0163561	-0.00981173	-0.00141757	
-0.0334701	-0.0205545	-0.00223496	
-0.0511148	-0.0378054	-0.00256037	
-0.0688417	-0.0615789	-0.00259286	
-0.0865356	-0.0919123	-0.00255416	
-0.104262	-0.128667	-0.00249447	
-0.12211	-0.171705	-0.00243338	
-0.140161	-0.220885	-0.00237382	