# vtk DataFile Version 4.1
vtk output
ASCII
DATASET UNSTRUCTURED_GRID

POINTS	1836	float
0	0	0	
1	0	0	
2	0	0	
3	0	0	
4	0	0	
5	0	0	
6	0	0	
7	0	0	
8	0	0	
9	0	0	
10	0	0	
11	0	0	
12	0	0	
13	0	0	
14	0	0	
15	0	0	
16	0	0	
17	0	0	
18	0	0	
19	0	0	
20	0	0	
21	0	0	
22	0	0	
23	0	0	
24	0	0	
25	0	0	
26	0	0	
27	0	0	
28	0	0	
29	0	0	
30	0	0	
31	0	0	
32	0	0	
33	0	0	
34	0	0	
35	0	0	
36	0	0	
37	0	0	
38	0	0	
39	0	0	
40	0	0	
41	0	0	
42	0	0	
43	0	0	
44	0	0	
45	0	0	
46	0	0	
47	0	0	
48	0	0	
49	0	0	
50	0	0	
0	1	0	
1	1	0	
2	1	0	
3	1	0	
4	1	0	
5	1	0	
6	1	0	
7	1	0	
8	1	0	
9	1	0	
10	1	0	
11	1	0	
12	1	0	
13	1	0	
14	1	0	
15	1	0	
16	1	0	
17	1	0	
18	1	0	
19	1	0	
20	1	0	
21	1	0	
22	1	0	
23	1	0	
24	1	0	
25	1	0	
26	1	0	
27	1	0	
28	1	0	
29	1	0	
30	1	0	
31	1	0	
32	1	0	
33	1	0	
34	1	0	
35	1	0	
36	1	0	
37	1	0	
38	1	0	
39	1	0	
40	1	0	
41	1	0	
42	1	0	
43	1	0	
44	1	0	
45	1	0	
46	1	0	
47	1	0	
48	1	0	
49	1	0	
50	1	0	
0	2	0	
1	2	0	
2	2	0	
3	2	0	
4	2	0	
5	2	0	
6	2	0	
7	2	0	
8	2	0	
9	2	0	
10	2	0	
11	2	0	
12	2	0	
13	2	0	
14	2	0	
15	2	0	
16	2	0	
17	2	0	
18	2	0	
19	2	0	
20	2	0	
21	2	0	
22	2	0	
23	2	0	
24	2	0	
25	2	0	
26	2	0	
27	2	0	
28	2	0	
29	2	0	
30	2	0	
31	2	0	
32	2	0	
33	2	0	
34	2	0	
35	2	0	
36	2	0	
37	2	0	
38	2	0	
39	2	0	
40	2	0	
41	2	0	
42	2	0	
43	2	0	
44	2	0	
45	2	0	
46	2	0	
47	2	0	
48	2	0	
49	2	0	
50	2	0	
0	3	0	
1	3	0	
2	3	0	
3	3	0	
4	3	0	
5	3	0	
6	3	0	
7	3	0	
8	3	0	
9	3	0	
10	3	0	
11	3	0	
12	3	0	
13	3	0	
14	3	0	
15	3	0	
16	3	0	
17	3	0	
18	3	0	
19	3	0	
20	3	0	
21	3	0	
22	3	0	
23	3	0	
24	3	0	
25	3	0	
26	3	0	
27	3	0	
28	3	0	
29	3	0	
30	3	0	
31	3	0	
32	3	0	
33	3	0	
34	3	0	
35	3	0	
36	3	0	
37	3	0	
38	3	0	
39	3	0	
40	3	0	
41	3	0	
42	3	0	
43	3	0	
44	3	0	
45	3	0	
46	3	0	
47	3	0	
48	3	0	
49	3	0	
50	3	0	
0	4	0	
1	4	0	
2	4	0	
3	4	0	
4	4	0	
5	4	0	
6	4	0	
7	4	0	
8	4	0	
9	4	0	
10	4	0	
11	4	0	
12	4	0	
13	4	0	
14	4	0	
15	4	0	
16	4	0	
17	4	0	
18	4	0	
19	4	0	
20	4	0	
21	4	0	
22	4	0	
23	4	0	
24	4	0	
25	4	0	
26	4	0	
27	4	0	
28	4	0	
29	4	0	
30	4	0	
31	4	0	
32	4	0	
33	4	0	
34	4	0	
35	4	0	
36	4	0	
37	4	0	
38	4	0	
39	4	0	
40	4	0	
41	4	0	
42	4	0	
43	4	0	
44	4	0	
45	4	0	
46	4	0	
47	4	0	
48	4	0	
49	4	0	
50	4	0	
0	5	0	
1	5	0	
2	5	0	
3	5	0	
4	5	0	
5	5	0	
6	5	0	
7	5	0	
8	5	0	
9	5	0	
10	5	0	
11	5	0	
12	5	0	
13	5	0	
14	5	0	
15	5	0	
16	5	0	
17	5	0	
18	5	0	
19	5	0	
20	5	0	
21	5	0	
22	5	0	
23	5	0	
24	5	0	
25	5	0	
26	5	0	
27	5	0	
28	5	0	
29	5	0	
30	5	0	
31	5	0	
32	5	0	
33	5	0	
34	5	0	
35	5	0	
36	5	0	
37	5	0	
38	5	0	
39	5	0	
40	5	0	
41	5	0	
42	5	0	
43	5	0	
44	5	0	
45	5	0	
46	5	0	
47	5	0	
48	5	0	
49	5	0	
50	5	0	
0	0	1	
1	0	1	
2	0	1	
3	0	1	
4	0	1	
5	0	1	
6	0	1	
7	0	1	
8	0	1	
9	0	1	
10	0	1	
11	0	1	
12	0	1	
13	0	1	
14	0	1	
15	0	1	
16	0	1	
17	0	1	
18	0	1	
19	0	1	
20	0	1	
21	0	1	
22	0	1	
23	0	1	
24	0	1	
25	0	1	
26	0	1	
27	0	1	
28	0	1	
29	0	1	
30	0	1	
31	0	1	
32	0	1	
33	0	1	
34	0	1	
35	0	1	
36	0	1	
37	0	1	
38	0	1	
39	0	1	
40	0	1	
41	0	1	
42	0	1	
43	0	1	
44	0	1	
45	0	1	
46	0	1	
47	0	1	
48	0	1	
49	0	1	
50	0	1	
0	1	1	
1	1	1	
2	1	1	
3	1	1	
4	1	1	
5	1	1	
6	1	1	
7	1	1	
8	1	1	
9	1	1	
10	1	1	
11	1	1	
12	1	1	
13	1	1	
14	1	1	
15	1	1	
16	1	1	
17	1	1	
18	1	1	
19	1	1	
20	1	1	
21	1	1	
22	1	1	
23	1	1	
24	1	1	
25	1	1	
26	1	1	
27	1	1	
28	1	1	
29	1	1	
30	1	1	
31	1	1	
32	1	1	
33	1	1	
34	1	1	
35	1	1	
36	1	1	
37	1	1	
38	1	1	
39	1	1	
40	1	1	
41	1	1	
42	1	1	
43	1	1	
44	1	1	
45	1	1	
46	1	1	
47	1	1	
48	1	1	
49	1	1	
50	1	1	
0	2	1	
1	2	1	
2	2	1	
3	2	1	
4	2	1	
5	2	1	
6	2	1	
7	2	1	
8	2	1	
9	2	1	
10	2	1	
11	2	1	
12	2	1	
13	2	1	
14	2	1	
15	2	1	
16	2	1	
17	2	1	
18	2	1	
19	2	1	
20	2	1	
21	2	1	
22	2	1	
23	2	1	
24	2	1	
25	2	1	
26	2	1	
27	2	1	
28	2	1	
29	2	1	
30	2	1	
31	2	1	
32	2	1	
33	2	1	
34	2	1	
35	2	1	
36	2	1	
37	2	1	
38	2	1	
39	2	1	
40	2	1	
41	2	1	
42	2	1	
43	2	1	
44	2	1	
45	2	1	
46	2	1	
47	2	1	
48	2	1	
49	2	1	
50	2	1	
0	3	1	
1	3	1	
2	3	1	
3	3	1	
4	3	1	
5	3	1	
6	3	1	
7	3	1	
8	3	1	
9	3	1	
10	3	1	
11	3	1	
12	3	1	
13	3	1	
14	3	1	
15	3	1	
16	3	1	
17	3	1	
18	3	1	
19	3	1	
20	3	1	
21	3	1	
22	3	1	
23	3	1	
24	3	1	
25	3	1	
26	3	1	
27	3	1	
28	3	1	
29	3	1	
30	3	1	
31	3	1	
32	3	1	
33	3	1	
34	3	1	
35	3	1	
36	3	1	
37	3	1	
38	3	1	
39	3	1	
40	3	1	
41	3	1	
42	3	1	
43	3	1	
44	3	1	
45	3	1	
46	3	1	
47	3	1	
48	3	1	
49	3	1	
50	3	1	
0	4	1	
1	4	1	
2	4	1	
3	4	1	
4	4	1	
5	4	1	
6	4	1	
7	4	1	
8	4	1	
9	4	1	
10	4	1	
11	4	1	
12	4	1	
13	4	1	
14	4	1	
15	4	1	
16	4	1	
17	4	1	
18	4	1	
19	4	1	
20	4	1	
21	4	1	
22	4	1	
23	4	1	
24	4	1	
25	4	1	
26	4	1	
27	4	1	
28	4	1	
29	4	1	
30	4	1	
31	4	1	
32	4	1	
33	4	1	
34	4	1	
35	4	1	
36	4	1	
37	4	1	
38	4	1	
39	4	1	
40	4	1	
41	4	1	
42	4	1	
43	4	1	
44	4	1	
45	4	1	
46	4	1	
47	4	1	
48	4	1	
49	4	1	
50	4	1	
0	5	1	
1	5	1	
2	5	1	
3	5	1	
4	5	1	
5	5	1	
6	5	1	
7	5	1	
8	5	1	
9	5	1	
10	5	1	
11	5	1	
12	5	1	
13	5	1	
14	5	1	
15	5	1	
16	5	1	
17	5	1	
18	5	1	
19	5	1	
20	5	1	
21	5	1	
22	5	1	
23	5	1	
24	5	1	
25	5	1	
26	5	1	
27	5	1	
28	5	1	
29	5	1	
30	5	1	
31	5	1	
32	5	1	
33	5	1	
34	5	1	
35	5	1	
36	5	1	
37	5	1	
38	5	1	
39	5	1	
40	5	1	
41	5	1	
42	5	1	
43	5	1	
44	5	1	
45	5	1	
46	5	1	
47	5	1	
48	5	1	
49	5	1	
50	5	1	
0	0	2	
1	0	2	
2	0	2	
3	0	2	
4	0	2	
5	0	2	
6	0	2	
7	0	2	
8	0	2	
9	0	2	
10	0	2	
11	0	2	
12	0	2	
13	0	2	
14	0	2	
15	0	2	
16	0	2	
17	0	2	
18	0	2	
19	0	2	
20	0	2	
21	0	2	
22	0	2	
23	0	2	
24	0	2	
25	0	2	
26	0	2	
27	0	2	
28	0	2	
29	0	2	
30	0	2	
31	0	2	
32	0	2	
33	0	2	
34	0	2	
35	0	2	
36	0	2	
37	0	2	
38	0	2	
39	0	2	
40	0	2	
41	0	2	
42	0	2	
43	0	2	
44	0	2	
45	0	2	
46	0	2	
47	0	2	
48	0	2	
49	0	2	
50	0	2	
0	1	2	
1	1	2	
2	1	2	
3	1	2	
4	1	2	
5	1	2	
6	1	2	
7	1	2	
8	1	2	
9	1	2	
10	1	2	
11	1	2	
12	1	2	
13	1	2	
14	1	2	
15	1	2	
16	1	2	
17	1	2	
18	1	2	
19	1	2	
20	1	2	
21	1	2	
22	1	2	
23	1	2	
24	1	2	
25	1	2	
26	1	2	
27	1	2	
28	1	2	
29	1	2	
30	1	2	
31	1	2	
32	1	2	
33	1	2	
34	1	2	
35	1	2	
36	1	2	
37	1	2	
38	1	2	
39	1	2	
40	1	2	
41	1	2	
42	1	2	
43	1	2	
44	1	2	
45	1	2	
46	1	2	
47	1	2	
48	1	2	
49	1	2	
50	1	2	
0	2	2	
1	2	2	
2	2	2	
3	2	2	
4	2	2	
5	2	2	
6	2	2	
7	2	2	
8	2	2	
9	2	2	
10	2	2	
11	2	2	
12	2	2	
13	2	2	
14	2	2	
15	2	2	
16	2	2	
17	2	2	
18	2	2	
19	2	2	
20	2	2	
21	2	2	
22	2	2	
23	2	2	
24	2	2	
25	2	2	
26	2	2	
27	2	2	
28	2	2	
29	2	2	
30	2	2	
31	2	2	
32	2	2	
33	2	2	
34	2	2	
35	2	2	
36	2	2	
37	2	2	
38	2	2	
39	2	2	
40	2	2	
41	2	2	
42	2	2	
43	2	2	
44	2	2	
45	2	2	
46	2	2	
47	2	2	
48	2	2	
49	2	2	
50	2	2	
0	3	2	
1	3	2	
2	3	2	
3	3	2	
4	3	2	
5	3	2	
6	3	2	
7	3	2	
8	3	2	
9	3	2	
10	3	2	
11	3	2	
12	3	2	
13	3	2	
14	3	2	
15	3	2	
16	3	2	
17	3	2	
18	3	2	
19	3	2	
20	3	2	
21	3	2	
22	3	2	
23	3	2	
24	3	2	
25	3	2	
26	3	2	
27	3	2	
28	3	2	
29	3	2	
30	3	2	
31	3	2	
32	3	2	
33	3	2	
34	3	2	
35	3	2	
36	3	2	
37	3	2	
38	3	2	
39	3	2	
40	3	2	
41	3	2	
42	3	2	
43	3	2	
44	3	2	
45	3	2	
46	3	2	
47	3	2	
48	3	2	
49	3	2	
50	3	2	
0	4	2	
1	4	2	
2	4	2	
3	4	2	
4	4	2	
5	4	2	
6	4	2	
7	4	2	
8	4	2	
9	4	2	
10	4	2	
11	4	2	
12	4	2	
13	4	2	
14	4	2	
15	4	2	
16	4	2	
17	4	2	
18	4	2	
19	4	2	
20	4	2	
21	4	2	
22	4	2	
23	4	2	
24	4	2	
25	4	2	
26	4	2	
27	4	2	
28	4	2	
29	4	2	
30	4	2	
31	4	2	
32	4	2	
33	4	2	
34	4	2	
35	4	2	
36	4	2	
37	4	2	
38	4	2	
39	4	2	
40	4	2	
41	4	2	
42	4	2	
43	4	2	
44	4	2	
45	4	2	
46	4	2	
47	4	2	
48	4	2	
49	4	2	
50	4	2	
0	5	2	
1	5	2	
2	5	2	
3	5	2	
4	5	2	
5	5	2	
6	5	2	
7	5	2	
8	5	2	
9	5	2	
10	5	2	
11	5	2	
12	5	2	
13	5	2	
14	5	2	
15	5	2	
16	5	2	
17	5	2	
18	5	2	
19	5	2	
20	5	2	
21	5	2	
22	5	2	
23	5	2	
24	5	2	
25	5	2	
26	5	2	
27	5	2	
28	5	2	
29	5	2	
30	5	2	
31	5	2	
32	5	2	
33	5	2	
34	5	2	
35	5	2	
36	5	2	
37	5	2	
38	5	2	
39	5	2	
40	5	2	
41	5	2	
42	5	2	
43	5	2	
44	5	2	
45	5	2	
46	5	2	
47	5	2	
48	5	2	
49	5	2	
50	5	2	
0	0	3	
1	0	3	
2	0	3	
3	0	3	
4	0	3	
5	0	3	
6	0	3	
7	0	3	
8	0	3	
9	0	3	
10	0	3	
11	0	3	
12	0	3	
13	0	3	
14	0	3	
15	0	3	
16	0	3	
17	0	3	
18	0	3	
19	0	3	
20	0	3	
21	0	3	
22	0	3	
23	0	3	
24	0	3	
25	0	3	
26	0	3	
27	0	3	
28	0	3	
29	0	3	
30	0	3	
31	0	3	
32	0	3	
33	0	3	
34	0	3	
35	0	3	
36	0	3	
37	0	3	
38	0	3	
39	0	3	
40	0	3	
41	0	3	
42	0	3	
43	0	3	
44	0	3	
45	0	3	
46	0	3	
47	0	3	
48	0	3	
49	0	3	
50	0	3	
0	1	3	
1	1	3	
2	1	3	
3	1	3	
4	1	3	
5	1	3	
6	1	3	
7	1	3	
8	1	3	
9	1	3	
10	1	3	
11	1	3	
12	1	3	
13	1	3	
14	1	3	
15	1	3	
16	1	3	
17	1	3	
18	1	3	
19	1	3	
20	1	3	
21	1	3	
22	1	3	
23	1	3	
24	1	3	
25	1	3	
26	1	3	
27	1	3	
28	1	3	
29	1	3	
30	1	3	
31	1	3	
32	1	3	
33	1	3	
34	1	3	
35	1	3	
36	1	3	
37	1	3	
38	1	3	
39	1	3	
40	1	3	
41	1	3	
42	1	3	
43	1	3	
44	1	3	
45	1	3	
46	1	3	
47	1	3	
48	1	3	
49	1	3	
50	1	3	
0	2	3	
1	2	3	
2	2	3	
3	2	3	
4	2	3	
5	2	3	
6	2	3	
7	2	3	
8	2	3	
9	2	3	
10	2	3	
11	2	3	
12	2	3	
13	2	3	
14	2	3	
15	2	3	
16	2	3	
17	2	3	
18	2	3	
19	2	3	
20	2	3	
21	2	3	
22	2	3	
23	2	3	
24	2	3	
25	2	3	
26	2	3	
27	2	3	
28	2	3	
29	2	3	
30	2	3	
31	2	3	
32	2	3	
33	2	3	
34	2	3	
35	2	3	
36	2	3	
37	2	3	
38	2	3	
39	2	3	
40	2	3	
41	2	3	
42	2	3	
43	2	3	
44	2	3	
45	2	3	
46	2	3	
47	2	3	
48	2	3	
49	2	3	
50	2	3	
0	3	3	
1	3	3	
2	3	3	
3	3	3	
4	3	3	
5	3	3	
6	3	3	
7	3	3	
8	3	3	
9	3	3	
10	3	3	
11	3	3	
12	3	3	
13	3	3	
14	3	3	
15	3	3	
16	3	3	
17	3	3	
18	3	3	
19	3	3	
20	3	3	
21	3	3	
22	3	3	
23	3	3	
24	3	3	
25	3	3	
26	3	3	
27	3	3	
28	3	3	
29	3	3	
30	3	3	
31	3	3	
32	3	3	
33	3	3	
34	3	3	
35	3	3	
36	3	3	
37	3	3	
38	3	3	
39	3	3	
40	3	3	
41	3	3	
42	3	3	
43	3	3	
44	3	3	
45	3	3	
46	3	3	
47	3	3	
48	3	3	
49	3	3	
50	3	3	
0	4	3	
1	4	3	
2	4	3	
3	4	3	
4	4	3	
5	4	3	
6	4	3	
7	4	3	
8	4	3	
9	4	3	
10	4	3	
11	4	3	
12	4	3	
13	4	3	
14	4	3	
15	4	3	
16	4	3	
17	4	3	
18	4	3	
19	4	3	
20	4	3	
21	4	3	
22	4	3	
23	4	3	
24	4	3	
25	4	3	
26	4	3	
27	4	3	
28	4	3	
29	4	3	
30	4	3	
31	4	3	
32	4	3	
33	4	3	
34	4	3	
35	4	3	
36	4	3	
37	4	3	
38	4	3	
39	4	3	
40	4	3	
41	4	3	
42	4	3	
43	4	3	
44	4	3	
45	4	3	
46	4	3	
47	4	3	
48	4	3	
49	4	3	
50	4	3	
0	5	3	
1	5	3	
2	5	3	
3	5	3	
4	5	3	
5	5	3	
6	5	3	
7	5	3	
8	5	3	
9	5	3	
10	5	3	
11	5	3	
12	5	3	
13	5	3	
14	5	3	
15	5	3	
16	5	3	
17	5	3	
18	5	3	
19	5	3	
20	5	3	
21	5	3	
22	5	3	
23	5	3	
24	5	3	
25	5	3	
26	5	3	
27	5	3	
28	5	3	
29	5	3	
30	5	3	
31	5	3	
32	5	3	
33	5	3	
34	5	3	
35	5	3	
36	5	3	
37	5	3	
38	5	3	
39	5	3	
40	5	3	
41	5	3	
42	5	3	
43	5	3	
44	5	3	
45	5	3	
46	5	3	
47	5	3	
48	5	3	
49	5	3	
50	5	3	
0	0	4	
1	0	4	
2	0	4	
3	0	4	
4	0	4	
5	0	4	
6	0	4	
7	0	4	
8	0	4	
9	0	4	
10	0	4	
11	0	4	
12	0	4	
13	0	4	
14	0	4	
15	0	4	
16	0	4	
17	0	4	
18	0	4	
19	0	4	
20	0	4	
21	0	4	
22	0	4	
23	0	4	
24	0	4	
25	0	4	
26	0	4	
27	0	4	
28	0	4	
29	0	4	
30	0	4	
31	0	4	
32	0	4	
33	0	4	
34	0	4	
35	0	4	
36	0	4	
37	0	4	
38	0	4	
39	0	4	
40	0	4	
41	0	4	
42	0	4	
43	0	4	
44	0	4	
45	0	4	
[...]
POINT_DATA	1836
VECTORS u float
-4.51853e-011	-8.77481e-012	-1.15866e-011	
-0.387717	-0.0732521	-0.200561	
-0.700095	-0.189127	-0.223027	
-1.03857	-0.436781	-0.205631	
-1.39017	-0.765848	-0.182038	
-1.74971	-1.16866	-0.162751	
-2.12298	-1.63744	-0.147041	
-2.51609	-2.16644	-0.133548	
-2.93336	-2.74986	-0.121424	
-3.37744	-3.38214	-0.110337	
-3.84981	-4.058	-0.100157	
-4.3511	-4.7726	-0.0908143	
-4.88135	-5.52155	-0.0822515	
-5.44019	-6.30087	-0.0744093	
-6.02691	-7.10702	-0.0672287	
-6.64057	-7.93684	-0.0606533	
-7.28008	-8.78754	-0.0546305	
-7.94422	-9.65665	-0.049112	
-8.63173	-10.542	-0.0440536	
-9.3413	-11.4416	-0.0394154	
-10.0716	-12.3539	-0.0351608	
-10.8215	-13.2774	-0.0312567	
-11.5895	-14.2107	-0.0276726	
-12.3745	-15.1527	-0.0243811	
-13.1754	-16.1025	-0.0213568	
-13.9909	-17.0591	-0.0185766	
-14.8201	-18.0218	-0.0160196	
-15.662	-18.9899	-0.0136662	
-16.5155	-19.9628	-0.011499	
-17.3798	-20.9401	-0.00950166	
-18.254	-21.9212	-0.0076593	
-19.1374	-22.9058	-0.00595826	
-20.0291	-23.8934	-0.00438598	
-20.9286	-24.8839	-0.00293089	
-21.8351	-25.8769	-0.0015823	
-22.748	-26.8722	-0.00033038	
-23.6668	-27.8695	0.000833945	
-24.5909	-28.8687	0.00191898	
-25.5198	-29.8696	0.00293224	
-26.4531	-30.8721	0.00388056	
-27.3902	-31.8761	0.00477059	
-28.3307	-32.8814	0.00561096	
-29.2743	-33.888	0.00641825	
-30.2204	-34.8958	0.00723001	
-31.1687	-35.9047	0.00812443	
-32.1187	-36.9144	0.00922469	
-33.0699	-37.924	0.0105925	
-34.0226	-38.9314	0.0117429	
-34.9779	-39.9348	0.0109763	
-35.9383	-40.9342	0.00530387	
-36.9027	-41.9331	-0.00445744	
-2.89809e-011	3.57822e-012	-9.25438e-012	
-0.225351	-0.0125022	-0.136725	
-0.42634	-0.177907	-0.152872	
-0.6463	-0.462181	-0.140484	
-0.900064	-0.840497	-0.123337	
-1.1801	-1.29436	-0.108627	
-1.48686	-1.81513	-0.0965422	
-1.82335	-2.39599	-0.0862724	
-2.1923	-3.0304	-0.0772294	
-2.59525	-3.71214	-0.0691185	
-3.03273	-4.43546	-0.0617936	
-3.50452	-5.19521	-0.0551668	
-4.00988	-5.98683	-0.0491691	
-4.54776	-6.80626	-0.0437391	
-5.11686	-7.64995	-0.0388201	
-5.71574	-8.51481	-0.0343603	
-6.34285	-9.3981	-0.0303131	
-6.99664	-10.2975	-0.0266369	
-7.6755	-11.2108	-0.0232943	
-8.37787	-12.1364	-0.0202524	
-9.10221	-13.0726	-0.0174816	
-9.84705	-14.0182	-0.0149556	
-10.611	-14.9718	-0.0126508	
-11.3926	-15.9326	-0.0105459	
-12.1906	-16.8996	-0.0086221	
-13.0039	-17.8721	-0.00686222	
-13.8312	-18.8493	-0.00525088	
-14.6715	-19.8308	-0.00377419	
-15.5238	-20.816	-0.0024196	
-16.3871	-21.8045	-0.00117572	
-17.2606	-22.7959	-3.22613e-005	
-18.1433	-23.7898	0.00102016	
-19.0346	-24.7861	0.00199006	
-19.9337	-25.7843	0.00288523	
-20.8399	-26.7844	0.00371276	
-21.7527	-27.7862	0.00447915	
-22.6713	-28.7894	0.00519031	
-23.5954	-29.7939	0.00585159	
-24.5242	-30.7996	0.00646766	
-25.4575	-31.8063	0.00704256	
-26.3946	-32.8141	0.00758001	
-27.3352	-33.8227	0.00808527	
-28.2789	-34.8322	0.00857092	
-29.2251	-35.8425	0.00907093	
-30.1736	-36.8536	0.00966662	
-31.1236	-37.8651	0.0105131	
-32.0747	-38.8766	0.0117976	
-33.0266	-39.887	0.0134005	
-33.9809	-40.8939	0.013576	
-34.9396	-41.8961	0.00844244	
-35.9025	-42.8943	-0.00512022	
-1.36816e-011	3.57404e-012	-5.09019e-012	
-0.0950142	-0.00292576	-0.0725633	
-0.184313	-0.191636	-0.0825693	
-0.302621	-0.508399	-0.0757476	
-0.458803	-0.925992	-0.0642807	
-0.654708	-1.4254	-0.0541897	
-0.890187	-1.99458	-0.0458696	
-1.16614	-2.62473	-0.0389659	
-1.48343	-3.30815	-0.0330879	
-1.84225	-4.03783	-0.0279976	
-2.24208	-4.80749	-0.0235509	
-2.68182	-5.61162	-0.0196517	
-3.15996	-6.4454	-0.0162259	
-3.67476	-7.30466	-0.0132117	
-4.22432	-8.18579	-0.0105556	
-4.80667	-9.08569	-0.00821104	
-5.41985	-10.0017	-0.00613775	
-6.06187	-10.9315	-0.00430084	
-6.73082	-11.8731	-0.00267026	
-7.42485	-12.8249	-0.00122009	
-8.14219	-13.7853	7.20306e-005	
-8.88115	-14.7533	0.00122544	
-9.64012	-15.7276	0.00225689	
-10.4176	-16.7074	0.00318092	
-11.2122	-17.6919	0.00401019	
-12.0226	-18.6805	0.00475574	
-12.8475	-19.6726	0.00542718	
-13.6858	-20.6678	0.00603297	
-14.5364	-21.6655	0.0065805	
-15.3983	-22.6654	0.00707627	
-16.2706	-23.6673	0.00752601	
-17.1524	-24.6708	0.00793479	
-18.0429	-25.6759	0.00830709	
-18.9414	-26.6821	0.00864688	
-19.8471	-27.6895	0.00895771	
-20.7594	-28.6979	0.00924272	
-21.6777	-29.7071	0.00950467	
-22.6015	-30.717	0.00974593	
-23.5302	-31.7276	0.00996831	
-24.4632	-32.7387	0.0101729	
-25.4003	-33.7503	0.0103603	
-26.3408	-34.7624	0.0105321	
-27.2844	-35.775	0.0106971	
-28.2306	-36.7878	0.0108884	
-29.1792	-37.8011	0.0112018	
-30.1294	-38.8149	0.0118639	
-31.081	-39.829	0.0132987	
-32.0336	-40.8428	0.0160144	
-32.9877	-41.8529	0.0192745	
-33.9438	-42.8529	0.0125627	
-34.9018	-43.8537	-0.00632501	
1.01519e-012	2.63692e-012	2.78521e-013	
0.0183532	-0.0287359	-0.00446724	
0.0322441	-0.239151	-0.00486783	
0.0152066	-0.583727	-6.13549e-006	
-0.0470363	-1.03441	0.00520686	
-0.158755	-1.57348	0.00959555	
-0.321177	-2.18683	0.0128207	
-0.534383	-2.86328	0.0151217	
-0.797896	-3.59345	0.016761	
-1.11066	-4.36931	0.0179277	
-1.47107	-5.18389	0.0187421	
-1.87713	-6.03123	0.0192832	
-2.32654	-6.90623	0.0196078	
-2.81686	-7.80456	0.0197603	
-3.34559	-8.72252	0.019777	
-3.91026	-9.65699	0.0196878	
-4.5084	-10.6053	0.0195178	
-5.13767	-11.5653	0.0192872	
-5.79581	-12.5349	0.0190127	
-6.48067	-13.5127	0.0187077	
-7.19024	-14.4973	0.0183827	
-7.92262	-15.4875	0.0180462	
-8.67602	-16.4825	0.0177049	
-9.44879	-17.4813	0.0173641	
-10.2394	-18.4834	0.0170276	
-11.0464	-19.4881	0.0166985	
-11.8684	-20.4951	0.016379	
-12.7043	-21.5038	0.0160706	
-13.5529	-22.5141	0.0157744	
-14.4131	-23.5255	0.0154911	
-15.2839	-24.5379	0.0152208	
-16.1645	-25.5511	0.0149637	
-17.0539	-26.5649	0.0147196	
-17.9515	-27.5793	0.014488	
-18.8565	-28.594	0.0142687	
-19.7682	-29.609	0.0140609	
-20.686	-30.6242	0.0138639	
-21.6093	-31.6395	0.013677	
-22.5376	-32.655	0.0134988	
-23.4703	-33.6706	0.0133278	
-24.4071	-34.6861	0.0131617	
-25.3474	-35.7017	0.0129998	
-26.2908	-36.7172	0.0128489	
-27.2369	-37.7328	0.0127404	
-28.1855	-38.7483	0.0127701	
-29.1361	-39.764	0.0131669	
-30.0887	-40.7797	0.0143638	
-31.0427	-41.7948	0.0168903	
-31.9972	-42.8058	0.0200176	
-32.9508	-43.8062	0.013329	
-33.9011	-44.8068	-0.00583679	
1.64597e-011	-2.02412e-013	7.27254e-012	
0.127728	-0.0821183	0.0646925	
0.247403	-0.325807	0.0808862	
0.326404	-0.692877	0.085928	
0.353994	-1.17281	0.0861332	
0.323913	-1.74771	0.0839958	
0.233735	-2.4018	0.0807098	
0.08336	-3.12166	0.0769401	
-0.125944	-3.89617	0.0730473	
-0.392096	-4.71611	0.0692082	
-0.712508	-5.57378	0.0654993	
-1.08428	-6.46274	0.061949	
-1.50433	-7.37757	0.0585661	
-1.96956	-8.31375	0.0553529	
-2.47685	-9.26747	0.0523095	
-3.02321	-10.2356	0.0494347	
-3.60573	-11.2154	0.0467263	
-4.22167	-12.2048	0.0441808	
-4.86844	-13.2019	0.0417933	
-5.54361	-14.2051	0.0395582	
-6.24491	-15.2133	0.0374691	
-6.97023	-16.2254	0.0355192	
-7.71761	-17.2406	0.0337012	
-8.48525	-18.2581	0.0320078	
-9.27146	-19.2774	0.0304318	
-10.0747	-20.298	0.0289658	
-10.8935	-21.3196	0.0276029	
-11.7267	-22.3418	0.0263362	
-12.5729	-23.3644	0.0251591	
-13.4311	-24.3872	0.0240653	
-14.3002	-25.41	0.0230486	
-15.1793	-26.4327	0.0221033	
-16.0674	-27.4552	0.0212239	
-16.9639	-28.4774	0.0204052	
-17.8679	-29.4994	0.0196423	
-18.7788	-30.5209	0.0189304	
-19.6959	-31.5421	0.0182651	
-20.6186	-32.5629	0.017642	
-21.5464	-33.5832	0.0170567	
-22.4787	-34.6031	0.0165048	
-23.415	-35.6225	0.0159822	
-24.3549	-36.6415	0.0154869	
-25.298	-37.6601	0.0150252	
-26.2439	-38.6783	0.0146267	
-27.1923	-39.696	0.0143718	
-28.143	-40.7132	0.0144226	
-29.096	-41.7295	0.0149902	
-30.0507	-42.7435	0.016006	
-31.005	-43.753	0.015789	
-31.9557	-44.7563	0.0105116	
-32.9014	-45.7542	-0.00354335	
3.25885e-011	-1.37496e-011	1.34745e-011	
0.257236	-0.184	0.134436	
0.478427	-0.439702	0.162495	
0.650765	-0.832048	0.171892	
0.765577	-1.34252	0.168689	
0.814118	-1.95352	0.160505	
0.79333	-2.64735	0.150559	
0.703391	-3.4089	0.140423	
0.546373	-4.22576	0.130718	
0.325316	-5.08776	0.121652	
0.0437345	-5.98655	0.113249	
-0.294637	-6.91526	0.105472	
-0.685999	-7.86817	0.0982706	
-1.12659	-8.84057	0.0915988	
-1.61274	-9.82854	0.085416	
-2.14097	-10.8289	0.0796874	
-2.70794	-11.839	0.0743818	
-3.31055	-12.8566	0.0694701	
-3.94589	-13.88	0.0649252	
-4.61125	-14.9077	0.0607215	
-5.30413	-15.9387	0.0568345	
-6.02222	-16.9718	0.0532413	
-6.76338	-18.0065	0.0499204	
-7.52567	-19.042	0.0468514	
-8.30728	-20.078	0.0440153	
-9.10656	-21.1139	0.0413943	
-9.92198	-22.1496	0.0389719	
-10.7522	-23.1848	0.0367324	
-11.5958	-24.2193	0.0346615	
-12.4518	-25.253	0.0327455	
-13.319	-26.2858	0.0309719	
-14.1964	-27.3177	0.029329	
-15.0831	-28.3487	0.0278059	
-15.9783	-29.3786	0.0263923	
-16.8812	-30.4075	0.0250788	
-17.7911	-31.4355	0.0238565	
-18.7074	-32.4624	0.0227169	
-19.6293	-33.4884	0.0216523	
-20.5564	-34.5134	0.0206548	
-21.4881	-35.5375	0.0197173	
-22.4239	-36.5607	0.0188331	
-23.3634	-37.5831	0.0179989	
-24.3061	-38.6046	0.0172211	
-25.2516	-39.6254	0.0165297	
-26.1996	-40.6454	0.0160018	
-27.15	-41.6643	0.0157721	
-28.1024	-42.6814	0.015941	
-29.0561	-43.6947	0.0161093	
-30.0091	-44.7018	0.0147449	
-30.9579	-45.7026	0.00889554	
-31.9024	-46.7013	-0.00118883	
-3.4206e-011	-8.64215e-012	-1.05223e-012	
-0.322015	-0.13007	-0.11182	
-0.711672	-0.252925	-0.140401	
-1.07465	-0.483089	-0.12827	
-1.42903	-0.802972	-0.112947	
-1.78708	-1.19998	-0.100478	
-2.15866	-1.66458	-0.0905721	
-2.55033	-2.18986	-0.0821377	
-2.96618	-2.76987	-0.0745935	
-3.40875	-3.39907	-0.0677031	
-3.8795	-4.07223	-0.0613825	
-4.3791	-4.78449	-0.0555897	
-4.90765	-5.53143	-0.050289	
-5.46479	-6.30905	-0.0454432	
-6.04985	-7.11375	-0.0410146	
-6.66192	-7.94236	-0.0369667	
-7.29989	-8.79203	-0.0332654	
-7.96258	-9.66027	-0.0298796	
-8.64872	-10.5449	-0.0267811	
-9.35701	-11.4439	-0.0239442	
-10.0861	-12.3557	-0.0213455	
-10.8348	-13.2788	-0.018964	
-11.6018	-14.2117	-0.0167805	
-12.3859	-15.1535	-0.0147775	
-13.1858	-16.103	-0.0129391	
-14.0005	-17.0594	-0.0112509	
-14.8289	-18.022	-0.00969959	
-15.67	-18.99	-0.00827318	
-16.5229	-19.9628	-0.00696066	
-17.3866	-20.94	-0.00575195	
-18.2602	-21.9211	-0.00463784	
-19.143	-22.9056	-0.00360989	
-20.0343	-23.8932	-0.00266036	
-20.9333	-24.8837	-0.0017821	
-21.8394	-25.8766	-0.000968572	
-22.7519	-26.8719	-0.000213735	
-23.6704	-27.8692	0.000487941	
-24.5941	-28.8684	0.00114145	
-25.5227	-29.8693	0.00175116	
-26.4556	-30.8718	0.00232068	
-27.3924	-31.8758	0.00285309	
-28.3327	-32.8811	0.0033527	
-29.276	-33.8877	0.00383126	
-30.222	-34.8954	0.00432419	
-31.17	-35.9043	0.0049226	
-32.1198	-36.914	0.00580902	
-33.0707	-37.9241	0.00720299	
-34.0225	-38.9334	0.00889567	
-34.9767	-39.9396	0.00907796	
-35.9366	-40.9416	0.004982	
-36.9051	-41.9398	-0.00354847	
-2.08101e-011	1.98944e-012	-1.36989e-012	
-0.180787	-0.0622601	-0.0741041	
-0.431893	-0.23196	-0.0968592	
-0.677692	-0.508773	-0.0882326	
-0.936603	-0.878964	-0.0764443	
-1.21627	-1.32707	-0.0668136	
-1.52169	-1.84334	-0.0592524	
-1.85687	-2.42028	-0.0529212	
-2.22449	-3.05116	-0.0473582	
-2.62602	-3.72974	-0.0423611	
-3.06195	-4.4503	-0.0378437	
-3.53212	-5.20766	-0.0337573	
-4.03584	-5.99723	-0.0300623	
-4.57207	-6.81491	-0.0267214	
-5.13956	-7.65712	-0.0236991	
-5.73687	-8.52071	-0.0209629	
-6.3625	-9.40295	-0.0184832	
-7.01485	-10.3014	-0.0162338	
-7.69237	-11.214	-0.014191	
-8.39347	-12.139	-0.0123342	
-9.11662	-13.0747	-0.0106447	
-9.86035	-14.0198	-0.00910606	
-10.6232	-14.9731	-0.00770354	
-11.4039	-15.9336	-0.00642393	
-12.201	-16.9003	-0.00525541	
-13.0135	-17.8726	-0.00418734	
-13.84	-18.8497	-0.00321019	
-14.6796	-19.831	-0.00231535	
-15.5312	-20.8161	-0.00149506	
-16.3939	-21.8045	-0.0007423	
-17.2668	-22.7958	-5.07282e-005	
-18.149	-23.7897	0.00058542	
-19.0398	-24.7859	0.00117138	
-19.9384	-25.7842	0.00171192	
-20.8442	-26.7843	0.0022114	
-21.7566	-27.786	0.00267377	
-22.6749	-28.7891	0.00310264	
-23.5986	-29.7936	0.00350118	
-24.5271	-30.7993	0.00387204	
-25.46	-31.8061	0.00421725	
-26.3969	-32.8138	0.0045384	
-27.3372	-33.8225	0.00483834	
-28.2806	-34.832	0.00512718	
-29.2267	-35.8422	0.00543813	
-30.1749	-36.8531	0.00585912	
-31.1247	-37.8646	0.00657327	
-32.0756	-38.8765	0.00784348	
-33.027	-39.8888	0.00973016	
-33.9799	-40.9005	0.0111269	
-34.9384	-41.9089	0.0073118	
-35.9055	-42.914	-0.00556201	
-1.0187e-011	2.01492e-012	-1.12116e-012	
-0.0830248	-0.0469752	-0.0375761	
-0.195287	-0.242997	-0.0522973	
-0.329342	-0.55814	-0.0479994	
-0.491261	-0.969824	-0.0404629	
-0.688178	-1.46337	-0.0338411	
-0.923232	-2.02744	-0.0286041	
-1.19834	-2.6531	-0.0243173	
-1.51456	-3.33251	-0.0206721	
-1.87215	-4.05865	-0.0175052	
-2.27059	-4.82523	-0.0147321	
-2.70883	-5.62669	-0.0122989	
-3.18542	-6.45816	-0.0101626	
-3.69866	-7.31545	-0.00828548	
-4.24667	-8.1949	-0.00663417	
-4.82753	-9.09337	-0.00517909	
-5.43925	-10.0081	-0.00389454	
-6.07988	-10.9369	-0.00275832	
-6.74752	-11.8777	-0.00175134	
-7.4403	-12.8287	-0.000857151	
-8.15647	-13.7885	-6.16122e-005	
-8.89433	-14.7559	0.00064749	
-9.65228	-15.7298	0.00128072	
-10.4288	-16.7092	0.00184722	
-11.2225	-17.6935	0.00235495	
-12.0321	-18.6818	0.00281082	
-12.8562	-19.6737	0.00322088	
-13.6938	-20.6686	0.0035904	
-14.5437	-21.6661	0.003924	
-15.405	-22.666	0.00422572	
-16.2768	-23.6677	0.00449915	
-17.158	-24.6712	0.00474742	
-18.0481	-25.6761	0.00497332	
-18.9461	-26.6824	0.0051793	
-19.8514	-27.6897	0.00536756	
-20.7633	-28.698	0.00554004	
-21.6813	-29.7072	0.00569844	
-22.6047	-30.7171	0.00584412	
-23.533	-31.7276	0.00597801	
-24.4658	-32.7387	0.00610036	
-25.4025	-33.7503	0.00621084	
-26.3428	-34.7624	0.00630998	
-27.2861	-35.7749	0.0064052	
-28.2321	-36.7877	0.00652811	
-29.1804	-37.8008	0.0067746	
-30.1306	-38.8144	0.00737954	
-31.082	-39.8288	0.00881569	
-32.0343	-40.8446	0.0117602	
-32.9874	-41.8629	0.01629	
-33.9436	-42.879	0.0186305	
-34.9031	-43.8717	-0.00834601	
7.73339e-013	1.2853e-012	-2.17538e-013	
0.0105694	-0.0689637	-0.00370793	
0.0133654	-0.291697	-0.00455883	
-0.0115456	-0.637912	-0.00188063	
-0.0776748	-1.08456	0.00157789	
-0.19078	-1.61792	0.00444811	
-0.353321	-2.22559	0.0065523	
-0.566034	-2.89682	0.00806503	
-0.828688	-3.62234	0.00917367	
-1.14033	-4.39409	0.00999445	
-1.49944	-5.20511	0.0105951	
-1.90405	-6.04938	0.0110193	
-2.35195	-6.92175	0.0113	
-2.84074	-7.81781	0.0114644	
-3.36795	-8.73384	0.0115358	
-3.93111	-9.66666	0.0115339	
-4.52781	-10.6136	0.0114752	
-5.1557	-11.5723	0.0113733	
-5.81252	-12.541	0.0112393	
-6.49614	-13.5179	0.0110821	
-7.20453	-14.5017	0.010909	
-7.93581	-15.4913	0.0107256	
-8.68819	-16.4857	0.0105365	
-9.46	-17.4841	0.0103452	
-10.2497	-18.4858	0.0101545	
-11.0559	-19.4902	0.00996655	
-11.8772	-20.4968	0.00978289	
-12.7123	-21.5053	0.0096047	
-13.5602	-22.5154	0.00943279	
-14.4198	-23.5266	0.0092677	
-15.2901	-24.5389	0.00910974	
-16.1701	-25.552	0.00895903	
-17.0591	-26.5657	0.00881558	
-17.9562	-27.5799	0.00867924	
-18.8607	-28.5945	0.00854982	
-19.772	-29.6094	0.00842702	
-20.6895	-30.6246	0.00831045	
-21.6124	-31.6399	0.00819955	
-22.5404	-32.6554	0.00809344	
-23.4729	-33.6709	0.00799067	
-24.4093	-34.6864	0.00788932	
-25.3493	-35.7019	0.00778848	
-26.2925	-36.7174	0.00769431	
-27.2384	-37.7328	0.0076376	
-28.1867	-38.7482	0.00771436	
-29.1372	-39.7637	0.00816192	
-30.0895	-40.7797	0.00946094	
-31.0433	-41.7968	0.0123074	
-31.9981	-42.8161	0.016815	
-32.9513	-43.8326	0.0192232	
-33.9001	-44.8251	-0.00724636	
1.33763e-011	-1.16957e-012	1.42971e-012	
0.105051	-0.118302	0.027515	
0.22216	-0.378004	0.0446392	
0.299518	-0.749304	0.0492177	
0.325221	-1.22663	0.0498489	
0.294015	-1.79636	0.0487908	
0.203428	-2.44467	0.0469968	
0.0532023	-3.15899	0.0449046	
-0.155531	-3.92848	0.0427344	
-0.420794	-4.74399	0.0405876	
-0.740082	-5.5978	0.0385046	
-1.11056	-6.48342	0.0364997	
-1.52923	-7.39538	0.0345779	
-1.99302	-8.32909	0.0327415	
-2.49886	-9.28069	0.0309924	
-3.04378	-10.247	0.0293321	
-3.62491	-11.2252	0.027761	
-4.23951	-12.2133	0.0262789	
-4.88499	-13.2092	0.0248843	
-5.55894	-14.2115	0.023575	
-6.25909	-15.2188	0.0223482	
-6.98333	-16.2302	0.0212005	
-7.72971	-17.2448	0.0201284	
-8.4964	-18.2618	0.019128	
-9.28172	-19.2806	0.0181955	
-10.0841	-20.3008	0.017327	
-10.9022	-21.322	0.0165184	
-11.7347	-22.3439	0.0157661	
-12.5802	-23.3663	0.0150663	
-13.4378	-24.3888	0.0144154	
-14.3063	-25.4114	0.0138098	
-15.1849	-26.434	0.0132464	
-16.0726	-27.4563	0.0127219	
-16.9686	-28.4784	0.0122333	
-17.8722	-29.5003	0.0117776	
-18.7827	-30.5217	0.0113523	
-19.6994	-31.5428	0.0109546	
-20.6218	-32.5635	0.0105818	
-21.5492	-33.5838	0.0102312	
-22.4812	-34.6036	0.00989963	
-23.4172	-35.623	0.00958405	
-24.3569	-36.642	0.00928297	
-25.2997	-37.6605	0.00900286	
-26.2454	-38.6785	0.0087745	
-27.1936	-39.6962	0.00868627	
-28.1441	-40.7133	0.00892846	
-29.0968	-41.7298	0.00978578	
-30.0516	-42.7458	0.0113671	
-31.007	-43.7601	0.0126379	
-31.9578	-44.7698	0.00893759	
-32.8995	-45.7744	-0.00363493	
2.89583e-011	-1.41242e-011	3.23087e-012	
0.23417	-0.21914	0.0543042	
0.453092	-0.493175	0.0875789	
0.62459	-0.88785	0.0964888	
0.738055	-1.39562	0.0964412	
0.785633	-2.00162	0.0924186	
0.764376	-2.68987	0.0870836	
0.674452	-3.44605	0.0814972	
0.517854	-4.25802	0.0760917	
0.297538	-5.11569	0.0710092	
0.0169437	-6.01071	0.0662747	
-0.320263	-6.93613	0.0618718	
-0.710342	-7.8862	0.0577749	
-1.14958	-8.85615	0.0539608	
-1.63436	-9.84201	0.0504101	
-2.16122	-10.8405	0.0471064	
-2.72685	-11.849	0.0440349	
-3.32816	-12.8653	0.0411817	
-3.96224	-13.8876	0.0385336	
-4.62642	-14.9143	0.0360776	
-5.31817	-15.9444	0.0338011	
-6.0352	-16.9768	0.0316921	
-6.77538	-18.0109	0.0297391	
-7.53673	-19.0458	0.027931	
-8.31747	-20.0813	0.0262574	
-9.11594	-21.1168	0.0247086	
-9.93061	-22.1521	0.0232751	
-10.7601	-23.187	0.0219484	
-11.6031	-24.2213	0.0207201	
-12.4584	-25.2548	0.0195826	
-13.3251	-26.2874	0.0185287	
-14.202	-27.3191	0.0175516	
-15.0882	-28.3499	0.0166451	
-15.983	-29.3797	0.0158032	
-16.8855	-30.4085	0.0150204	
-17.795	-31.4364	0.0142915	
-18.7108	-32.4632	0.0136116	
-19.6324	-33.4891	0.0129759	
-20.5592	-34.5141	0.0123797	
-21.4906	-35.5381	0.0118182	
-22.4261	-36.5613	0.0112865	
-23.3653	-37.5836	0.0107818	
-24.3078	-38.605	0.0103102	
-25.253	-39.6257	0.00990341	
-26.2009	-40.6455	0.00965423	
-27.151	-41.6645	0.00975853	
-28.1034	-42.6821	0.0104764	
-29.0575	-43.6972	0.0116935	
-30.0115	-44.7074	0.01174	
-30.9609	-45.7109	0.00792354	
-31.9017	-46.7087	-0.000825399	
-3.51384e-011	-8.85924e-012	-7.58569e-013	
-0.331439	-0.153271	-0.0358719	
-0.711378	-0.282376	-0.0461685	
-1.08681	-0.510469	-0.0439575	
-1.44551	-0.825592	-0.038446	
-1.80431	-1.21927	-0.0341761	
-2.17568	-1.68121	-0.0307425	
-2.56688	-2.20426	-0.0278469	
-2.98215	-2.78229	-0.0252663	
-3.42406	-3.40972	-0.0229144	
-3.89409	-4.08131	-0.020759	
-4.39291	-4.79221	-0.0187854	
-4.92066	-5.53796	-0.0169815	
-5.477	-6.31456	-0.0153342	
-6.06126	-7.1184	-0.0138306	
-6.67254	-7.94626	-0.0124578	
-7.30977	-8.79531	-0.011204	
-7.97175	-9.66302	-0.0100583	
-8.65721	-10.5472	-0.00901091	
-9.36486	-11.4459	-0.00805283	
-10.0934	-12.3573	-0.00717602	
-10.8415	-13.2801	-0.00637316	
-11.608	-14.2128	-0.00563762	
-12.3915	-15.1544	-0.00496339	
-13.191	-16.1038	-0.00434501	
-14.0053	-17.06	-0.0037775	
-14.8333	-18.0225	-0.00325634	
-15.6741	-18.9904	-0.00277741	
-16.5266	-19.9632	-0.00233695	
-17.3899	-20.9403	-0.00193153	
-18.2633	-21.9213	-0.00155801	
-19.1459	-22.9058	-0.00121353	
-20.0369	-23.8933	-0.000895455	
-20.9357	-24.8838	-0.000601366	
-21.8415	-25.8767	-0.000329045	
-22.7539	-26.8719	-7.64515e-005	
-23.6721	-27.8692	0.000158275	
-24.5957	-28.8684	0.000376798	
-25.5241	-29.8693	0.000580524	
-26.4569	-30.8718	0.000770532	
-27.3936	-31.8758	0.000947657	
-28.3337	-32.8811	0.00111325	
-29.2769	-33.8876	0.0012721	
-30.2227	-34.8953	0.00144021	
-31.1707	-35.9042	0.00166069	
-32.1203	-36.9142	0.00202309	
-33.0706	-37.9253	0.00264349	
-34.021	-38.9367	0.00349349	
-34.9721	-39.945	0.00368154	
-35.934	-40.9444	0.00231445	
-36.9077	-41.9455	-0.00144579	
-2.04062e-011	1.32023e-012	-7.49562e-013	
-0.180455	-0.0820631	-0.0234247	
-0.432443	-0.259235	-0.0318957	
-0.689101	-0.534423	-0.0301798	
-0.953488	-0.901286	-0.0259092	
-1.23419	-1.34618	-0.0225676	