# vtk DataFile Version 4.1
vtk output
ASCII
DATASET UNSTRUCTURED_GRID

POINTS	1836	float
0	0	0	
1	0	0	
2	0	0	
3	0	0	
4	0	0	
5	0	0	
6	0	0	
7	0	0	
8	0	0	
9	0	0	
10	0	0	
11	0	0	
12	0	0	
13	0	0	
14	0	0	
15	0	0	
16	0	0	
17	0	0	
18	0	0	
19	0	0	
20	0	0	
21	0	0	
22	0	0	
23	0	0	
24	0	0	
25	0	0	
26	0	0	
27	0	0	
28	0	0	
29	0	0	
30	0	0	
31	0	0	
32	0	0	
33	0	0	
34	0	0	
35	0	0	
36	0	0	
37	0	0	
38	0	0	
39	0	0	
40	0	0	
41	0	0	
42	0	0	
43	0	0	
44	0	0	
45	0	0	
46	0	0	
47	0	0	
48	0	0	
49	0	0	
50	0	0	
0	1	0	
1	1	0	
2	1	0	
3	1	0	
4	1	0	
5	1	0	
6	1	0	
7	1	0	
8	1	0	
9	1	0	
10	1	0	
11	1	0	
12	1	0	
13	1	0	
14	1	0	
15	1	0	
16	1	0	
17	1	0	
18	1	0	
19	1	0	
20	1	0	
21	1	0	
22	1	0	
23	1	0	
24	1	0	
25	1	0	
26	1	0	
27	1	0	
28	1	0	
29	1	0	
30	1	0	
31	1	0	
32	1	0	
33	1	0	
34	1	0	
35	1	0	
36	1	0	
37	1	0	
38	1	0	
39	1	0	
40	1	0	
41	1	0	
42	1	0	
43	1	0	
44	1	0	
45	1	0	
46	1	0	
47	1	0	
48	1	0	
49	1	0	
50	1	0	
0	2	0	
1	2	0	
2	2	0	
3	2	0	
4	2	0	
5	2	0	
6	2	0	
7	2	0	
8	2	0	
9	2	0	
10	2	0	
11	2	0	
12	2	0	
13	2	0	
14	2	0	
15	2	0	
16	2	0	
17	2	0	
18	2	0	
19	2	0	
20	2	0	
21	2	0	
22	2	0	
23	2	0	
24	2	0	
25	2	0	
26	2	0	
27	2	0	
28	2	0	
29	2	0	
30	2	0	
31	2	0	
32	2	0	
33	2	0	
34	2	0	
35	2	0	
36	2	0	
37	2	0	
38	2	0	
39	2	0	
40	2	0	
41	2	0	
42	2	0	
43	2	0	
44	2	0	
45	2	0	
46	2	0	
47	2	0	
48	2	0	
49	2	0	
50	2	0	
0	3	0	
1	3	0	
2	3	0	
3	3	0	
4	3	0	
5	3	0	
6	3	0	
7	3	0	
8	3	0	
9	3	0	
10	3	0	
11	3	0	
12	3	0	
13	3	0	
14	3	0	
15	3	0	
16	3	0	
17	3	0	
18	3	0	
19	3	0	
20	3	0	
21	3	0	
22	3	0	
23	3	0	
24	3	0	
25	3	0	
26	3	0	
27	3	0	
28	3	0	
29	3	0	
30	3	0	
31	3	0	
32	3	0	
33	3	0	
34	3	0	
35	3	0	
36	3	0	
37	3	0	
38	3	0	
39	3	0	
40	3	0	
41	3	0	
42	3	0	
43	3	0	
44	3	0	
45	3	0	
46	3	0	
47	3	0	
48	3	0	
49	3	0	
50	3	0	
0	4	0	
1	4	0	
2	4	0	
3	4	0	
4	4	0	
5	4	0	
6	4	0	
7	4	0	
8	4	0	
9	4	0	
10	4	0	
11	4	0	
12	4	0	
13	4	0	
14	4	0	
15	4	0	
16	4	0	
17	4	0	
18	4	0	
19	4	0	
20	4	0	
21	4	0	
22	4	0	
23	4	0	
24	4	0	
25	4	0	
26	4	0	
27	4	0	
28	4	0	
29	4	0	
30	4	0	
31	4	0	
32	4	0	
33	4	0	
34	4	0	
35	4	0	
36	4	0	
37	4	0	
38	4	0	
39	4	0	
40	4	0	
41	4	0	
42	4	0	
43	4	0	
44	4	0	
45	4	0	
46	4	0	
47	4	0	
48	4	0	
49	4	0	
50	4	0	
0	5	0	
1	5	0	
2	5	0	
3	5	0	
4	5	0	
5	5	0	
6	5	0	
7	5	0	
8	5	0	
9	5	0	
10	5	0	
11	5	0	
12	5	0	
13	5	0	
14	5	0	
15	5	0	
16	5	0	
17	5	0	
18	5	0	
19	5	0	
20	5	0	
21	5	0	
22	5	0	
23	5	0	
24	5	0	
25	5	0	
26	5	0	
27	5	0	
28	5	0	
29	5	0	
30	5	0	
31	5	0	
32	5	0	
33	5	0	
34	5	0	
35	5	0	
36	5	0	
37	5	0	
38	5	0	
39	5	0	
40	5	0	
41	5	0	
42	5	0	
43	5	0	
44	5	0	
45	5	0	
46	5	0	
47	5	0	
48	5	0	
49	5	0	
50	5	0	
0	0	1	
1	0	1	
2	0	1	
3	0	1	
4	0	1	
5	0	1	
6	0	1	
7	0	1	
8	0	1	
9	0	1	
10	0	1	
11	0	1	
12	0	1	
13	0	1	
14	0	1	
15	0	1	
16	0	1	
17	0	1	
18	0	1	
19	0	1	
20	0	1	
21	0	1	
22	0	1	
23	0	1	
24	0	1	
25	0	1	
26	0	1	
27	0	1	
28	0	1	
29	0	1	
30	0	1	
31	0	1	
32	0	1	
33	0	1	
34	0	1	
35	0	1	
36	0	1	
37	0	1	
38	0	1	
39	0	1	
40	0	1	
41	0	1	
42	0	1	
43	0	1	
44	0	1	
45	0	1	
46	0	1	
47	0	1	
48	0	1	
49	0	1	
50	0	1	
0	1	1	
1	1	1	
2	1	1	
3	1	1	
4	1	1	
5	1	1	
6	1	1	
7	1	1	
8	1	1	
9	1	1	
10	1	1	
11	1	1	
12	1	1	
13	1	1	
14	1	1	
15	1	1	
16	1	1	
17	1	1	
18	1	1	
19	1	1	
20	1	1	
21	1	1	
22	1	1	
23	1	1	
24	1	1	
25	1	1	
26	1	1	
27	1	1	
28	1	1	
29	1	1	
30	1	1	
31	1	1	
32	1	1	
33	1	1	
34	1	1	
35	1	1	
36	1	1	
37	1	1	
38	1	1	
39	1	1	
40	1	1	
41	1	1	
42	1	1	
43	1	1	
44	1	1	
45	1	1	
46	1	1	
47	1	1	
48	1	1	
49	1	1	
50	1	1	
0	2	1	
1	2	1	
2	2	1	
3	2	1	
4	2	1	
5	2	1	
6	2	1	
7	2	1	
8	2	1	
9	2	1	
10	2	1	
11	2	1	
12	2	1	
13	2	1	
14	2	1	
15	2	1	
16	2	1	
17	2	1	
18	2	1	
19	2	1	
20	2	1	
21	2	1	
22	2	1	
23	2	1	
24	2	1	
25	2	1	
26	2	1	
27	2	1	
28	2	1	
29	2	1	
30	2	1	
31	2	1	
32	2	1	
33	2	1	
34	2	1	
35	2	1	
36	2	1	
37	2	1	
38	2	1	
39	2	1	
40	2	1	
41	2	1	
42	2	1	
43	2	1	
44	2	1	
45	2	1	
46	2	1	
47	2	1	
48	2	1	
49	2	1	
50	2	1	
0	3	1	
1	3	1	
2	3	1	
3	3	1	
4	3	1	
5	3	1	
6	3	1	
7	3	1	
8	3	1	
9	3	1	
10	3	1	
11	3	1	
12	3	1	
13	3	1	
14	3	1	
15	3	1	
16	3	1	
17	3	1	
18	3	1	
19	3	1	
20	3	1	
21	3	1	
22	3	1	
23	3	1	
24	3	1	
25	3	1	
26	3	1	
27	3	1	
28	3	1	
29	3	1	
30	3	1	
31	3	1	
32	3	1	
33	3	1	
34	3	1	
35	3	1	
36	3	1	
37	3	1	
38	3	1	
39	3	1	
40	3	1	
41	3	1	
42	3	1	
43	3	1	
44	3	1	
45	3	1	
46	3	1	
47	3	1	
48	3	1	
49	3	1	
50	3	1	
0	4	1	
1	4	1	
2	4	1	
3	4	1	
4	4	1	
5	4	1	
6	4	1	
7	4	1	
8	4	1	
9	4	1	
10	4	1	
11	4	1	
12	4	1	
13	4	1	
14	4	1	
15	4	1	
16	4	1	
17	4	1	
18	4	1	
19	4	1	
20	4	1	
21	4	1	
22	4	1	
23	4	1	
24	4	1	
25	4	1	
26	4	1	
27	4	1	
28	4	1	
29	4	1	
30	4	1	
31	4	1	
32	4	1	
33	4	1	
34	4	1	
35	4	1	
36	4	1	
37	4	1	
38	4	1	
39	4	1	
40	4	1	
41	4	1	
42	4	1	
43	4	1	
44	4	1	
45	4	1	
46	4	1	
47	4	1	
48	4	1	
49	4	1	
50	4	1	
0	5	1	
1	5	1	
2	5	1	
3	5	1	
4	5	1	
5	5	1	
6	5	1	
7	5	1	
8	5	1	
9	5	1	
10	5	1	
11	5	1	
12	5	1	
13	5	1	
14	5	1	
15	5	1	
16	5	1	
17	5	1	
18	5	1	
19	5	1	
20	5	1	
21	5	1	
22	5	1	
23	5	1	
24	5	1	
25	5	1	
26	5	1	
27	5	1	
28	5	1	
29	5	1	
30	5	1	
31	5	1	
32	5	1	
33	5	1	
34	5	1	
35	5	1	
36	5	1	
37	5	1	
38	5	1	
39	5	1	
40	5	1	
41	5	1	
42	5	1	
43	5	1	
44	5	1	
45	5	1	
46	5	1	
47	5	1	
48	5	1	
49	5	1	
50	5	1	
0	0	2	
1	0	2	
2	0	2	
3	0	2	
4	0	2	
5	0	2	
6	0	2	
7	0	2	
8	0	2	
9	0	2	
10	0	2	
11	0	2	
12	0	2	
13	0	2	
14	0	2	
15	0	2	
16	0	2	
17	0	2	
18	0	2	
19	0	2	
20	0	2	
21	0	2	
22	0	2	
23	0	2	
24	0	2	
25	0	2	
26	0	2	
27	0	2	
28	0	2	
29	0	2	
30	0	2	
31	0	2	
32	0	2	
33	0	2	
34	0	2	
35	0	2	
36	0	2	
37	0	2	
38	0	2	
39	0	2	
40	0	2	
41	0	2	
42	0	2	
43	0	2	
44	0	2	
45	0	2	
46	0	2	
47	0	2	
48	0	2	
49	0	2	
50	0	2	
0	1	2	
1	1	2	
2	1	2	
3	1	2	
4	1	2	
5	1	2	
6	1	2	
7	1	2	
8	1	2	
9	1	2	
10	1	2	
11	1	2	
12	1	2	
13	1	2	
14	1	2	
15	1	2	
16	1	2	
17	1	2	
18	1	2	
19	1	2	
20	1	2	
21	1	2	
22	1	2	
23	1	2	
24	1	2	
25	1	2	
26	1	2	
27	1	2	
28	1	2	
29	1	2	
30	1	2	
31	1	2	
32	1	2	
33	1	2	
34	1	2	
35	1	2	
36	1	2	
37	1	2	
38	1	2	
39	1	2	
40	1	2	
41	1	2	
42	1	2	
43	1	2	
44	1	2	
45	1	2	
46	1	2	
47	1	2	
48	1	2	
49	1	2	
50	1	2	
0	2	2	
1	2	2	
2	2	2	
3	2	2	
4	2	2	
5	2	2	
6	2	2	
7	2	2	
8	2	2	
9	2	2	
10	2	2	
11	2	2	
12	2	2	
13	2	2	
14	2	2	
15	2	2	
16	2	2	
17	2	2	
18	2	2	
19	2	2	
20	2	2	
21	2	2	
22	2	2	
23	2	2	
24	2	2	
25	2	2	
26	2	2	
27	2	2	
28	2	2	
29	2	2	
30	2	2	
31	2	2	
32	2	2	
33	2	2	
34	2	2	
35	2	2	
36	2	2	
37	2	2	
38	2	2	
39	2	2	
40	2	2	
41	2	2	
42	2	2	
43	2	2	
44	2	2	
45	2	2	
46	2	2	
47	2	2	
48	2	2	
49	2	2	
50	2	2	
0	3	2	
1	3	2	
2	3	2	
3	3	2	
4	3	2	
5	3	2	
6	3	2	
7	3	2	
8	3	2	
9	3	2	
10	3	2	
11	3	2	
12	3	2	
13	3	2	
14	3	2	
15	3	2	
16	3	2	
17	3	2	
18	3	2	
19	3	2	
20	3	2	
21	3	2	
22	3	2	
23	3	2	
24	3	2	
25	3	2	
26	3	2	
27	3	2	
28	3	2	
29	3	2	
30	3	2	
31	3	2	
32	3	2	
33	3	2	
34	3	2	
35	3	2	
36	3	2	
37	3	2	
38	3	2	
39	3	2	
40	3	2	
41	3	2	
42	3	2	
43	3	2	
44	3	2	
45	3	2	
46	3	2	
47	3	2	
48	3	2	
49	3	2	
50	3	2	
0	4	2	
1	4	2	
2	4	2	
3	4	2	
4	4	2	
5	4	2	
6	4	2	
7	4	2	
8	4	2	
9	4	2	
10	4	2	
11	4	2	
12	4	2	
13	4	2	
14	4	2	
15	4	2	
16	4	2	
17	4	2	
18	4	2	
19	4	2	
20	4	2	
21	4	2	
22	4	2	
23	4	2	
24	4	2	
25	4	2	
26	4	2	
27	4	2	
28	4	2	
29	4	2	
30	4	2	
31	4	2	
32	4	2	
33	4	2	
34	4	2	
35	4	2	
36	4	2	
37	4	2	
38	4	2	
39	4	2	
40	4	2	
41	4	2	
42	4	2	
43	4	2	
44	4	2	
45	4	2	
46	4	2	
47	4	2	
48	4	2	
49	4	2	
50	4	2	
0	5	2	
1	5	2	
2	5	2	
3	5	2	
4	5	2	
5	5	2	
6	5	2	
7	5	2	
8	5	2	
9	5	2	
10	5	2	
11	5	2	
12	5	2	
13	5	2	
14	5	2	
15	5	2	
16	5	2	
17	5	2	
18	5	2	
19	5	2	
20	5	2	
21	5	2	
22	5	2	
23	5	2	
24	5	2	
25	5	2	
26	5	2	
27	5	2	
28	5	2	
29	5	2	
30	5	2	
31	5	2	
32	5	2	
33	5	2	
34	5	2	
35	5	2	
36	5	2	
37	5	2	
38	5	2	
39	5	2	
40	5	2	
41	5	2	
42	5	2	
43	5	2	
44	5	2	
45	5	2	
46	5	2	
47	5	2	
48	5	2	
49	5	2	
50	5	2	
0	0	3	
1	0	3	
2	0	3	
3	0	3	
4	0	3	
5	0	3	
6	0	3	
7	0	3	
8	0	3	
9	0	3	
10	0	3	
11	0	3	
12	0	3	
13	0	3	
14	0	3	
15	0	3	
16	0	3	
17	0	3	
18	0	3	
19	0	3	
20	0	3	
21	0	3	
22	0	3	
23	0	3	
24	0	3	
25	0	3	
26	0	3	
27	0	3	
28	0	3	
29	0	3	
30	0	3	
31	0	3	
32	0	3	
33	0	3	
34	0	3	
35	0	3	
36	0	3	
37	0	3	
38	0	3	
39	0	3	
40	0	3	
41	0	3	
42	0	3	
43	0	3	
44	0	3	
45	0	3	
46	0	3	
47	0	3	
48	0	3	
49	0	3	
50	0	3	
0	1	3	
1	1	3	
2	1	3	
3	1	3	
4	1	3	
5	1	3	
6	1	3	
7	1	3	
8	1	3	
9	1	3	
10	1	3	
11	1	3	
12	1	3	
13	1	3	
14	1	3	
15	1	3	
16	1	3	
17	1	3	
18	1	3	
19	1	3	
20	1	3	
21	1	3	
22	1	3	
23	1	3	
24	1	3	
25	1	3	
26	1	3	
27	1	3	
28	1	3	
29	1	3	
30	1	3	
31	1	3	
32	1	3	
33	1	3	
34	1	3	
35	1	3	
36	1	3	
37	1	3	
38	1	3	
39	1	3	
40	1	3	
41	1	3	
42	1	3	
43	1	3	
44	1	3	
45	1	3	
46	1	3	
47	1	3	
48	1	3	
49	1	3	
50	1	3	
0	2	3	
1	2	3	
2	2	3	
3	2	3	
4	2	3	
5	2	3	
6	2	3	
7	2	3	
8	2	3	
9	2	3	
10	2	3	
11	2	3	
12	2	3	
13	2	3	
14	2	3	
15	2	3	
16	2	3	
17	2	3	
18	2	3	
19	2	3	
20	2	3	
21	2	3	
22	2	3	
23	2	3	
24	2	3	
25	2	3	
26	2	3	
27	2	3	
28	2	3	
29	2	3	
30	2	3	
31	2	3	
32	2	3	
33	2	3	
34	2	3	
35	2	3	
36	2	3	
37	2	3	
38	2	3	
39	2	3	
40	2	3	
41	2	3	
42	2	3	
43	2	3	
44	2	3	
45	2	3	
46	2	3	
47	2	3	
48	2	3	
49	2	3	
50	2	3	
0	3	3	
1	3	3	
2	3	3	
3	3	3	
4	3	3	
5	3	3	
6	3	3	
7	3	3	
8	3	3	
9	3	3	
10	3	3	
11	3	3	
12	3	3	
13	3	3	
14	3	3	
15	3	3	
16	3	3	
17	3	3	
18	3	3	
19	3	3	
20	3	3	
21	3	3	
22	3	3	
23	3	3	
24	3	3	
25	3	3	
26	3	3	
27	3	3	
28	3	3	
29	3	3	
30	3	3	
31	3	3	
32	3	3	
33	3	3	
34	3	3	
35	3	3	
36	3	3	
37	3	3	
38	3	3	
39	3	3	
40	3	3	
41	3	3	
42	3	3	
43	3	3	
44	3	3	
45	3	3	
46	3	3	
47	3	3	
48	3	3	
49	3	3	
50	3	3	
0	4	3	
1	4	3	
2	4	3	
3	4	3	
4	4	3	
5	4	3	
6	4	3	
7	4	3	
8	4	3	
9	4	3	
10	4	3	
11	4	3	
12	4	3	
13	4	3	
14	4	3	
15	4	3	
16	4	3	
17	4	3	
18	4	3	
19	4	3	
20	4	3	
21	4	3	
22	4	3	
23	4	3	
24	4	3	
25	4	3	
26	4	3	
27	4	3	
28	4	3	
29	4	3	
30	4	3	
31	4	3	
32	4	3	
33	4	3	
34	4	3	
35	4	3	
36	4	3	
37	4	3	
38	4	3	
39	4	3	
40	4	3	
41	4	3	
42	4	3	
43	4	3	
44	4	3	
45	4	3	
46	4	3	
47	4	3	
48	4	3	
49	4	3	
50	4	3	
0	5	3	
1	5	3	
2	5	3	
3	5	3	
4	5	3	
5	5	3	
6	5	3	
7	5	3	
8	5	3	
9	5	3	
10	5	3	
11	5	3	
12	5	3	
13	5	3	
14	5	3	
15	5	3	
16	5	3	
17	5	3	
18	5	3	
19	5	3	
20	5	3	
21	5	3	
22	5	3	
23	5	3	
24	5	3	
25	5	3	
26	5	3	
27	5	3	
28	5	3	
29	5	3	
30	5	3	
31	5	3	
32	5	3	
33	5	3	
34	5	3	
35	5	3	
36	5	3	
37	5	3	
38	5	3	
39	5	3	
40	5	3	
41	5	3	
42	5	3	
43	5	3	
44	5	3	
45	5	3	
46	5	3	
47	5	3	
48	5	3	
49	5	3	
50	5	3	
0	0	4	
1	0	4	
2	0	4	
3	0	4	
4	0	4	
5	0	4	
6	0	4	
7	0	4	
8	0	4	
9	0	4	
10	0	4	
11	0	4	
12	0	4	
13	0	4	
14	0	4	
15	0	4	
16	0	4	
17	0	4	
18	0	4	
19	0	4	
20	0	4	
21	0	4	
22	0	4	
23	0	4	
24	0	4	
25	0	4	
26	0	4	
27	0	4	
28	0	4	
29	0	4	
30	0	4	
31	0	4	
32	0	4	
33	0	4	
34	0	4	
35	0	4	
36	0	4	
37	0	4	
38	0	4	
39	0	4	
40	0	4	
41	0	4	
42	0	4	
43	0	4	
44	0	4	
45	0	4	
[...]
POINT_DATA	1836
VECTORS u float
-3.28501e-011	-6.77859e-012	-1.30439e-011	
-0.270174	-0.060711	-0.166271	
-0.516505	-0.179645	-0.201998	
-0.776922	-0.420735	-0.204582	
-1.06052	-0.752114	-0.190747	
-1.36848	-1.15914	-0.173501	
-1.7021	-1.63175	-0.156825	
-2.06328	-2.1632	-0.141799	
-2.45388	-2.74788	-0.12836	
-2.87531	-3.38057	-0.116246	
-3.32831	-4.05635	-0.105235	
-3.81306	-4.77062	-0.0951787	
-4.32925	-5.51912	-0.0859782	
-4.87619	-6.29801	-0.0775594	
-5.45294	-7.1038	-0.0698591	
-6.05834	-7.93338	-0.0628188	
-6.69112	-8.78397	-0.0563838	
-7.34989	-9.65311	-0.0505027	
-8.03325	-10.5386	-0.0451275	
-8.73976	-11.4386	-0.0402142	
-9.46799	-12.3513	-0.0357222	
-10.2165	-13.2752	-0.0316142	
-10.9841	-14.2091	-0.0278563	
-11.7692	-15.1518	-0.0244174	
-12.5708	-16.1023	-0.0212693	
-13.3875	-17.0598	-0.0183859	
-14.2184	-18.0233	-0.0157438	
-15.0622	-18.9923	-0.0133213	
-15.918	-19.9661	-0.0110988	
-16.7848	-20.9443	-0.00905822	
-17.6618	-21.9263	-0.00718319	
-18.5481	-22.9118	-0.00545863	
-19.4429	-23.9004	-0.00387074	
-20.3456	-24.8918	-0.00240687	
-21.2553	-25.8857	-0.0010554	
-22.1716	-26.8819	0.000194346	
-23.0938	-27.8801	0.00135216	
-24.0213	-28.8802	0.002427	
-24.9536	-29.8821	0.00342695	
-25.8903	-30.8854	0.00435927	
-26.8309	-31.8902	0.00523083	
-27.7748	-32.8964	0.00605001	
-28.7218	-33.9038	0.00683239	
-29.6714	-34.9124	0.00761401	
-30.6232	-35.9222	0.00847352	
-31.5766	-36.9327	0.00954393	
-32.5312	-37.9431	0.0109195	
-33.4872	-38.9514	0.0121503	
-34.4458	-39.9552	0.011471	
-35.4097	-40.9547	0.00561958	
-36.3779	-41.9538	-0.00463429	
-1.99168e-011	4.12766e-012	-8.11815e-012	
-0.137431	-0.00583731	-0.0941523	
-0.271758	-0.168049	-0.115684	
-0.422643	-0.444233	-0.117093	
-0.60899	-0.818217	-0.109505	
-0.833024	-1.272	-0.0994889	
-1.09493	-1.79411	-0.0895659	
-1.39483	-2.37629	-0.0805119	
-1.73309	-3.01172	-0.0723915	
-2.10988	-3.69431	-0.0650791	
-2.52494	-4.41846	-0.0584431	
-2.97755	-5.17911	-0.0523889	
-3.4666	-5.97171	-0.0468519	
-3.99071	-6.79222	-0.0417853	
-4.54829	-7.63709	-0.0371505	
-5.13765	-8.50319	-0.0329126	
-5.75702	-9.38779	-0.029039	
-6.40463	-10.2885	-0.0254992	
-7.0787	-11.2033	-0.0222646	
-7.7775	-12.1302	-0.0193086	
-8.49936	-13.0679	-0.0166067	
-9.24264	-14.0148	-0.0141367	
-10.0058	-14.9698	-0.0118778	
-10.7874	-15.932	-0.00981145	
-11.5861	-16.9003	-0.00792037	
-12.4005	-17.8741	-0.00618894	
-13.2294	-18.8526	-0.00460287	
-14.0716	-19.8353	-0.00314912	
-14.9262	-20.8217	-0.00181577	
-15.792	-21.8113	-0.000591958	
-16.6682	-22.8039	0.000532268	
-17.5539	-23.7989	0.001566	
-18.4483	-24.7962	0.00251757	
-19.3505	-25.7955	0.00339461	
-20.2601	-26.7966	0.00420412	
-21.1762	-27.7993	0.00495254	
-22.0982	-28.8035	0.00564577	
-23.0257	-29.8089	0.00628912	
-23.958	-30.8155	0.00688733	
-24.8947	-31.8231	0.00744441	
-25.8353	-32.8317	0.00796393	
-26.7793	-33.8412	0.00845052	
-27.7264	-34.8515	0.00891522	
-28.6761	-35.8626	0.00938941	
-29.628	-36.8744	0.00995236	
-30.5815	-37.8868	0.0107648	
-31.5359	-38.8992	0.0120417	
-32.4912	-39.9103	0.0137338	
-33.4487	-40.9179	0.0141059	
-34.4108	-41.9203	0.00891767	
-35.3776	-42.9185	-0.00555201	
-5.43861e-012	3.20393e-012	-2.16609e-012	
-0.0281927	-0.0134838	-0.0308904	
-0.0564929	-0.196312	-0.038946	
-0.111938	-0.501792	-0.0401747	
-0.206192	-0.908581	-0.0370219	
-0.346104	-1.40103	-0.0326561	
-0.533445	-1.96642	-0.0282044	
-0.768407	-2.59466	-0.0241533	
-1.05058	-3.27733	-0.0205792	
-1.37915	-4.00713	-0.0174299	
-1.75291	-4.77763	-0.0146309	
-2.17025	-5.58317	-0.0121227	
-2.62929	-6.41881	-0.00986361	
-3.12793	-7.28024	-0.00782405	
-3.66396	-8.16376	-0.00598114	
-4.23512	-9.06618	-0.0043155	
-4.83917	-9.98474	-0.0028098	
-5.47388	-10.9171	-0.00144825	
-6.13713	-11.8613	-0.000216484	
-6.82685	-12.8155	0.000898557	
-7.54111	-13.7783	0.00190864	
-8.27805	-14.7485	0.00282434	
-9.03593	-15.725	0.00365514	
-9.81311	-16.7069	0.00440956	
-10.6081	-17.6933	0.00509521	
-11.4194	-18.6838	0.00571892	
-12.2458	-19.6776	0.00628683	
-13.0859	-20.6743	0.00680443	
-13.9387	-21.6735	0.00727667	
-14.8031	-22.6749	0.00770799	
-15.6782	-23.6781	0.00810242	
-16.5629	-24.6829	0.00846355	
-17.4565	-25.6892	0.00879467	
-18.3581	-26.6966	0.00909874	
-19.2671	-27.7051	0.00937844	
-20.1828	-28.7145	0.00963621	
-21.1045	-29.7246	0.00987425	
-22.0317	-30.7355	0.0100944	
-22.9638	-31.747	0.0102982	
-23.9003	-32.759	0.0104864	
-24.8408	-33.7715	0.0106592	
-25.7848	-34.7844	0.0108171	
-26.7318	-35.7977	0.0109668	
-27.6816	-36.8114	0.011137	
-28.6335	-37.8255	0.0114173	
-29.5872	-38.84	0.0120317	
-30.5422	-39.8549	0.0134264	
-31.4981	-40.8696	0.0161989	
-32.4556	-41.8806	0.019887	
-33.4151	-42.8805	0.0131112	
-34.3766	-43.8816	-0.00703315	
8.22371e-012	1.34692e-012	3.33812e-012	
0.0736251	-0.0490212	0.0318086	
0.142218	-0.256618	0.0339169	
0.181875	-0.587415	0.0338674	
0.17625	-1.02327	0.0329585	
0.118329	-1.55036	0.0324118	
0.00490149	-2.15527	0.0318833	
-0.164717	-2.82633	0.0312484	
-0.389844	-3.55354	0.0304749	
-0.668991	-4.32832	0.0295989	
-1.00014	-5.14333	0.0286669	
-1.38089	-5.99225	0.0277163	
-1.8086	-6.86967	0.026771	
-2.28051	-7.771	0.0258455	
-2.79376	-8.69234	0.0249482	
-3.34558	-9.6304	0.0240845	
-3.9332	-10.5824	0.0232577	
-4.55402	-11.546	0.0224701	
-5.2055	-12.5192	0.0217229	
-5.88529	-13.5004	0.0210166	
-6.59116	-14.4883	0.0203511	
-7.32102	-15.4816	0.0197257	
-8.07293	-16.4794	0.0191394	
-8.84508	-17.481	0.0185909	
-9.63581	-18.4856	0.0180785	
-10.4436	-19.4926	0.0176006	
-11.2669	-20.5017	0.0171553	
-12.1046	-21.5124	0.0167409	
-12.9552	-22.5245	0.0163554	
-13.8179	-23.5376	0.0159971	
-14.6914	-24.5516	0.015664	
-15.5748	-25.5663	0.0153544	
-16.4674	-26.5814	0.0150666	
-17.3681	-27.597	0.014799	
-18.2764	-28.6129	0.0145499	
-19.1914	-29.629	0.0143178	
-20.1126	-30.6452	0.0141013	
-21.0393	-31.6616	0.0138989	
-21.9711	-32.678	0.0137087	
-22.9073	-33.6944	0.0135287	
-23.8475	-34.7108	0.0133562	
-24.7913	-35.7272	0.0131892	
-25.7381	-36.7436	0.0130318	
-26.6877	-37.7599	0.0129108	
-27.6397	-38.7762	0.0129144	
-28.5938	-39.7926	0.0132677	
-29.5497	-40.8091	0.0144238	
-30.5072	-41.825	0.0170009	
-31.4651	-42.8369	0.0205567	
-32.4221	-43.8373	0.0138215	
-33.3757	-44.8381	-0.00652662	
2.20455e-011	-1.23714e-012	8.97735e-012	
0.177642	-0.105955	0.0903017	
0.347352	-0.343641	0.103787	
0.476868	-0.695609	0.104819	
0.556804	-1.1594	0.101375	
0.578261	-1.72004	0.0965887	
0.536864	-2.36318	0.0914605	
0.431347	-3.0756	0.0863066	
0.262506	-3.84583	0.0812563	
0.0323543	-4.66412	0.0763858	
-0.256383	-5.52222	0.0717426	
-0.600574	-6.41318	0.0673517	
-0.996866	-7.33117	0.0632216	
-1.44183	-8.27127	0.0593509	
-1.93204	-9.22942	0.0557327	
-2.46418	-10.2022	0.0523574	
-3.03502	-11.1868	0.0492144	
-3.64154	-12.1809	0.046292	
-4.28086	-13.1825	0.0435787	
-4.9503	-14.1902	0.0410624	
-5.64737	-15.2025	0.0387311	
-6.36975	-16.2185	0.0365733	
-7.1153	-17.2373	0.0345775	
-7.88205	-18.2581	0.0327325	
-8.66818	-19.2805	0.0310277	
-9.47203	-20.3039	0.0294531	
-10.2921	-21.328	0.027999	
-11.1269	-22.3526	0.0266562	
-11.9751	-23.3773	0.0254161	
-12.8357	-24.402	0.0242708	
-13.7075	-25.4265	0.0232125	
-14.5894	-26.4509	0.0222342	
-15.4806	-27.4749	0.0213292	
-16.3803	-28.4985	0.0204914	
-17.2876	-29.5217	0.0197148	
-18.2018	-30.5444	0.018994	
-19.1223	-31.5666	0.0183238	
-20.0485	-32.5884	0.0176995	
-20.9797	-33.6097	0.0171161	
-21.9155	-34.6305	0.0165687	
-22.8553	-35.6508	0.0160527	
-23.7987	-36.6706	0.0155648	
-24.7452	-37.69	0.0151088	
-25.6946	-38.7089	0.01471	
-26.6464	-39.7274	0.0144445	
-27.6005	-40.7454	0.014477	
-28.5569	-41.7624	0.0150446	
-29.515	-42.7772	0.016153	
-30.4729	-43.7874	0.0161481	
-31.427	-44.7909	0.0108764	
-32.3756	-45.7887	-0.00396251	
3.7383e-011	-1.35422e-011	1.32603e-011	
0.307959	-0.19847	0.146337	
0.568345	-0.442975	0.166336	
0.785707	-0.82019	0.171534	
0.95027	-1.31387	0.166176	
1.04945	-1.91006	0.157919	
1.07794	-2.59247	0.148711	
1.03427	-3.34648	0.139438	
0.919621	-4.15939	0.130417	
0.736621	-5.02047	0.121803	
0.488724	-5.92073	0.113663	
0.179794	-6.85267	0.106019	
-0.186132	-7.81008	0.0988659	
-0.604994	-8.7878	0.09219	
-1.07281	-9.7816	0.0859707	
-1.58575	-10.788	0.080186	
-2.14016	-11.8041	0.0748129	
-2.7326	-12.8277	0.0698283	
-3.35989	-13.8568	0.0652095	
-4.01904	-14.89	0.0609336	
-4.7073	-15.926	0.0569785	
-5.42215	-16.9638	0.0533227	
-6.16125	-18.0028	0.0499455	
-6.92248	-19.0423	0.046827	
-7.70388	-20.0819	0.0439484	
-8.50367	-21.1211	0.0412919	
-9.3202	-22.1598	0.0388405	
-10.152	-23.1976	0.0365785	
-10.9977	-24.2346	0.0344909	
-11.856	-25.2705	0.0325637	
-12.7259	-26.3053	0.0307841	
-13.6061	-27.339	0.0291396	
-14.4959	-28.3715	0.0276191	
-15.3943	-29.4029	0.0262118	
-16.3005	-30.4332	0.0249079	
-17.2138	-31.4623	0.023698	
-18.1335	-32.4904	0.0225735	
-19.0589	-33.5174	0.0215262	
-19.9895	-34.5434	0.0205482	
-20.9247	-35.5684	0.0196318	
-21.864	-36.5925	0.0187699	
-22.8069	-37.6156	0.0179579	
-23.7531	-38.6379	0.0171993	
-24.7021	-39.6594	0.0165204	
-25.6536	-40.6802	0.0159951	
-26.6074	-41.6999	0.0157647	
-27.5632	-42.7178	0.0159623	
-28.5204	-43.7318	0.0162321	
-29.4769	-44.7394	0.0149943	
-30.429	-45.7404	0.00905306	
-31.3765	-46.7391	-0.00139421	
-2.72877e-011	-7.66643e-012	-2.84744e-012	
-0.242149	-0.110577	-0.0804189	
-0.517992	-0.251937	-0.119992	
-0.801506	-0.487835	-0.124745	
-1.09656	-0.809017	-0.117419	
-1.40856	-1.20613	-0.106607	
-1.74263	-1.67063	-0.0960133	
-2.10277	-2.19556	-0.0865201	
-2.49173	-2.77485	-0.0781276	
-2.91124	-3.403	-0.0706328	
-3.36218	-4.07493	-0.0638617	
-3.84481	-4.78594	-0.0577004	
-4.35886	-5.53169	-0.0520769	
-4.90369	-6.30827	-0.0469404	
-5.4784	-7.11214	-0.0422494	
-6.08186	-7.94011	-0.0379666	
-6.71278	-8.78938	-0.0340571	
-7.36982	-9.65743	-0.0304884	
-8.05156	-10.542	-0.0272303	
-8.75656	-11.4412	-0.0242551	
-9.48339	-12.3533	-0.0215374	
-10.2306	-13.2768	-0.0190541	
-10.997	-14.2103	-0.016784	
-11.781	-15.1527	-0.0147081	
-12.5816	-16.1029	-0.0128087	
-13.3974	-17.0601	-0.0110701	
-14.2274	-18.0235	-0.00947764	
-15.0704	-18.9924	-0.00801825	
-15.9255	-19.9661	-0.00667988	
-16.7917	-20.9442	-0.00545154	
-17.668	-21.9262	-0.00432322	
-18.5538	-22.9116	-0.00328576	
-19.4481	-23.9002	-0.00233079	
-20.3503	-24.8916	-0.00145064	
-21.2596	-25.8854	-0.000638249	
-22.1755	-26.8816	0.000112838	
-23.0972	-27.8798	0.000808537	
-24.0244	-28.8799	0.0014542	
-24.9564	-29.8818	0.00205451	
-25.8928	-30.8851	0.00261335	
-26.8331	-31.8899	0.00313389	
-27.7768	-32.8961	0.00362003	
-28.7235	-33.9035	0.00408202	
-29.6729	-34.912	0.00455245	
-30.6245	-35.9217	0.00511998	
-31.5776	-36.9322	0.0059737	
-32.5319	-37.9432	0.00736685	
-33.487	-38.9533	0.00915122	
-34.4444	-39.9602	0.00946037	
-35.4078	-40.9624	0.00528221	
-36.3806	-41.9606	-0.00377523	
-1.47467e-011	2.42781e-012	-1.76691e-012	
-0.113799	-0.0513407	-0.0468751	
-0.271753	-0.227451	-0.0717555	
-0.444035	-0.503285	-0.0742126	
-0.641358	-0.870429	-0.069333	
-0.869816	-1.31639	-0.0624516	
-1.13267	-1.83147	-0.0557845	
-1.43194	-2.40769	-0.0498612	
-1.76888	-3.03809	-0.0446634	
-2.14403	-3.71639	-0.0400486	
-2.55727	-4.43688	-0.0358959	
-3.00797	-5.19439	-0.0321263	
-3.49508	-5.98434	-0.0286908	
-4.01725	-6.80261	-0.0255561	
-4.57294	-7.6456	-0.022696	
-5.16048	-8.51013	-0.020087	
-5.77811	-9.39343	-0.0177077	
-6.42408	-10.2931	-0.0155379	
-7.0966	-11.2069	-0.0135587	
-7.79396	-12.1331	-0.0117532	
-8.51447	-13.0702	-0.0101053	
-9.25652	-14.0166	-0.00860097	
-10.0185	-14.9712	-0.00722696	
-10.7991	-15.933	-0.00597144	
-11.5967	-16.9011	-0.00482362	
-12.4102	-17.8746	-0.00377369	
-13.2383	-18.853	-0.00281273	
-14.0798	-19.8355	-0.00193263	
-14.9336	-20.8218	-0.001126	
-15.7988	-21.8114	-0.000386111	
-16.6744	-22.8038	0.000293161	
-17.5595	-23.7988	0.000917413	
-18.4534	-24.7961	0.00149176	
-19.3552	-25.7954	0.00202088	
-20.2643	-26.7964	0.00250906	
-21.18	-27.7991	0.00296023	
-22.1017	-28.8032	0.00337796	
-23.0288	-29.8086	0.00376545	
-23.9608	-30.8152	0.00412539	
-24.8971	-31.8229	0.00445982	
-25.8375	-32.8315	0.00477018	
-26.7812	-33.841	0.00505868	
-27.7281	-34.8513	0.00533371	
-28.6776	-35.8623	0.00562516	
-29.6292	-36.874	0.00601765	
-30.5825	-37.8862	0.00669774	
-31.5368	-38.899	0.00795501	
-32.4916	-39.912	0.00990845	
-33.4476	-40.9246	0.0115154	
-34.4094	-41.9339	0.00777412	
-35.3807	-42.9396	-0.00589952	
-3.73404e-012	1.69169e-012	-6.14854e-013	
-0.025026	-0.0541314	-0.0157657	
-0.0650351	-0.248712	-0.0251415	
-0.132001	-0.556403	-0.0263925	
-0.233728	-0.959141	-0.0243398	
-0.377389	-1.44552	-0.021225	
-0.566106	-2.00481	-0.018147	
-0.801106	-2.62754	-0.015427	
-1.08259	-3.30538	-0.0130886	
-1.41006	-4.03099	-0.011063	
-1.78247	-4.79786	-0.00928079	
-2.19831	-5.60027	-0.00769298	
-2.65576	-6.43322	-0.00626846	
-3.15277	-7.29236	-0.00498659	
-3.68717	-8.17393	-0.00383195	
-4.25673	-9.07469	-0.00279159	
-4.85922	-9.99185	-0.00185395	
-5.49245	-10.923	-0.00100851	
-6.15429	-11.8662	-0.0002457	
-6.84269	-12.8196	0.000443096	
-7.5557	-13.7817	0.00106561	
-8.29148	-14.7513	0.00162873	
-9.04827	-15.7273	0.00213863	
-9.82445	-16.7088	0.00260079	
-10.6185	-17.6949	0.00302009	
-11.4289	-18.6851	0.00340091	
-12.2545	-19.6786	0.00374713	
-13.0939	-20.6751	0.00406225	
-13.946	-21.6742	0.00434938	
-14.8098	-22.6754	0.00461132	
-15.6843	-23.6786	0.00485058	
-16.5684	-24.6833	0.00506942	
-17.4615	-25.6894	0.00526988	
-18.3627	-26.6968	0.0054538	
-19.2713	-27.7052	0.00562285	
-20.1866	-28.7146	0.00577853	
-21.1079	-29.7247	0.00592219	
-22.0348	-30.7356	0.00605492	
-22.9666	-31.747	0.00617746	
-23.9028	-32.759	0.0062899	
-24.843	-33.7715	0.00639161	
-25.7867	-34.7844	0.00648227	
-26.7335	-35.7977	0.00656712	
-27.683	-36.8113	0.00667325	
-28.6347	-37.8252	0.00688972	
-29.5883	-38.8395	0.00744707	
-30.5431	-39.8546	0.00883272	
-31.4989	-40.8712	0.0118086	
-32.4552	-41.8906	0.0165977	
-33.4147	-42.9084	0.0198365	
-34.3784	-43.9007	-0.00951061	
6.80631e-012	1.85106e-013	5.3218e-013	
0.0616183	-0.0853468	0.0138335	
0.126786	-0.305513	0.0189223	
0.161915	-0.639544	0.0188487	
0.152024	-1.07284	0.0185086	
0.0912245	-1.59506	0.0183391	
-0.023685	-2.19462	0.0182163	
-0.193765	-2.8606	0.0179946	
-0.418673	-3.5832	0.0176552	
-0.697153	-4.3539	0.017227	
-1.02733	-5.16532	0.016747	
-1.40691	-6.01111	0.0162433	
-1.83332	-6.88582	0.0157332	
-2.30385	-7.7848	0.015227	
-2.8157	-8.70412	0.0147308	
-3.3661	-9.64045	0.0142486	
-3.95234	-10.591	0.0137832	
-4.57181	-11.5533	0.0133367	
-5.22201	-12.5254	0.0129105	
-5.90057	-13.5058	0.0125055	
-6.60528	-14.4928	0.0121221	
-7.33405	-15.4855	0.0117604	
-8.08494	-16.4827	0.0114201	
-8.85614	-17.4838	0.0111006	
-9.64598	-18.488	0.0108014	
-10.4529	-19.4947	0.0105217	
-11.2755	-20.5035	0.0102605	
-12.1124	-21.514	0.0100168	
-12.9624	-22.5258	0.00978981	
-13.8244	-23.5387	0.00957841	
-14.6974	-24.5526	0.00938163	
-15.5803	-25.5671	0.0091985	
-16.4724	-26.5821	0.00902805	
-17.3727	-27.5976	0.00886936	
-18.2805	-28.6134	0.00872153	
-19.1951	-29.6294	0.00858369	
-20.116	-30.6456	0.00845498	
-21.0424	-31.6619	0.00833445	
-21.9738	-32.6783	0.00822093	
-22.9097	-33.6947	0.00811273	
-23.8497	-34.7111	0.00800755	
-24.7932	-35.7274	0.00790348	
-25.7398	-36.7437	0.00780424	
-26.6892	-37.7599	0.00773561	
-27.6409	-38.7761	0.0077859	
-28.5948	-39.7923	0.00818684	
-29.5505	-40.8089	0.00943182	
-30.5078	-41.8268	0.0122996	
-31.466	-42.8472	0.017053	
-32.4227	-43.8654	0.0203736	
-33.3743	-44.8574	-0.00838738	
1.8175e-011	-2.06434e-012	1.76845e-012	
0.152727	-0.138545	0.0418334	
0.327366	-0.389889	0.0601201	
0.457414	-0.745572	0.0616373	
0.535203	-1.20762	0.0597542	
0.554556	-1.76431	0.0569405	
0.511694	-2.40278	0.0539677	
0.405448	-3.11055	0.0509931	
0.236482	-3.87646	0.0480742	
0.00665646	-4.69084	0.0452495	
-0.281428	-5.54547	0.0425478	
-0.624731	-6.43336	0.0399861	
-1.01998	-7.34865	0.0375711	
-1.46379	-8.28641	0.0353033	
-1.95279	-9.24251	0.0331795	
-2.48368	-10.2135	0.0311949	
-3.0533	-11.1966	0.0293436	
-3.6586	-12.1894	0.0276198	
-4.29674	-13.1899	0.0260168	
-4.96505	-14.1965	0.0245283	
-5.66104	-15.208	0.0231476	
-6.3824	-16.2233	0.0218682	
-7.12699	-17.2414	0.0206835	
-7.89283	-18.2617	0.0195873	
-8.67812	-19.2836	0.0185736	
-9.48118	-20.3067	0.0176365	
-10.3005	-21.3304	0.0167704	
-11.1346	-22.3547	0.0159701	
-11.9822	-23.3791	0.0152305	
-12.8422	-24.4036	0.014547	
-13.7134	-25.428	0.0139152	
-14.5948	-26.4521	0.0133308	
-15.4856	-27.476	0.0127899	
-16.3848	-28.4995	0.012289	
-17.2917	-29.5225	0.0118244	
-18.2055	-30.5452	0.0113932	
-19.1257	-31.5673	0.010992	
-20.0515	-32.589	0.0106181	
-20.9824	-33.6103	0.0102684	
-21.9179	-34.631	0.00993955	
-22.8574	-35.6512	0.00962796	
-23.8006	-36.671	0.00933111	
-24.7469	-37.6903	0.00905292	
-25.696	-38.7091	0.0088195	
-26.6476	-39.7275	0.00871372	
-27.6015	-40.7454	0.00892678	
-28.5577	-41.7627	0.00976815	
-29.5159	-42.7793	0.0114071	
-30.4749	-43.7945	0.0128838	
-31.4292	-44.8051	0.00927994	
-32.3737	-45.8102	-0.00391832	
3.29122e-011	-1.37809e-011	2.65197e-012	
0.281903	-0.232086	0.0680794	
0.547933	-0.48972	0.0971757	
0.766777	-0.868287	0.101062	
0.929977	-1.36017	0.0985576	
1.02738	-1.95264	0.0937117	
1.05444	-2.63074	0.0883273	
1.00997	-3.38045	0.0828838	
0.895058	-4.18931	0.0775812	
0.712239	-5.04671	0.0725059	
0.464852	-5.94366	0.0677007	
0.156672	-6.87266	0.0631815	
-0.208333	-7.82748	0.0589487	
-0.62616	-8.80293	0.0549946	
-1.09287	-9.79474	0.0513079	
-1.60466	-10.7994	0.047876	
-2.15792	-11.814	0.0446859	
-2.74923	-12.8363	0.0417242	
-3.3754	-13.8643	0.0389779	
-4.03347	-14.8965	0.0364338	
-4.7207	-15.9316	0.0340791	
-5.43457	-16.9688	0.0319014	
-6.17274	-18.0071	0.0298885	
-6.9331	-19.0461	0.028029	
-7.71367	-20.0852	0.0263117	
-8.51269	-21.124	0.0247262	
-9.3285	-22.1623	0.0232625	
-10.1596	-23.1998	0.0219114	
-11.0047	-24.2365	0.0206641	
-11.8624	-25.2722	0.0195123	
-12.7317	-26.3068	0.0184483	
-13.6115	-27.3403	0.017465	
-14.5008	-28.3727	0.0165554	
-15.3988	-29.404	0.0157135	
-16.3046	-30.4341	0.0149332	
-17.2175	-31.4632	0.014209	
-18.1368	-32.4912	0.0135359	
-19.0619	-33.5181	0.0129088	
-19.9922	-34.544	0.0123228	
-20.9271	-35.569	0.0117729	
-21.8661	-36.593	0.0112538	
-22.8088	-37.6161	0.0107616	
-23.7547	-38.6383	0.0102994	
-24.7035	-39.6597	0.00989398	
-25.6548	-40.6803	0.00963206	
-26.6083	-41.7	0.00971231	
-27.5641	-42.7185	0.0104275	
-28.5217	-43.7343	0.0117314	
-29.4793	-44.7451	0.0119143	
-30.4322	-45.7489	0.00808085	
-31.3756	-46.7467	-0.00108217	
-2.84913e-011	-8.26894e-012	-1.21829e-012	
-0.253748	-0.12822	-0.0246095	
-0.523881	-0.27939	-0.0372674	
-0.810173	-0.519042	-0.0413896	
-1.10929	-0.838184	-0.0394364	
-1.4241	-1.23155	-0.035978	
-1.75949	-1.69222	-0.0323849	
-2.11993	-2.21378	-0.0291392	
-2.50862	-2.79023	-0.0262752	
-2.92755	-3.41599	-0.0237302	
-3.37775	-4.08589	-0.0214398	
-3.85955	-4.79515	-0.0193609	
-4.37272	-5.53942	-0.0174662	
-4.91667	-6.31474	-0.0157372	
-5.49049	-7.11753	-0.0141593	
-6.09308	-7.94461	-0.0127198	
-6.72318	-8.79312	-0.0114066	
-7.37942	-9.66053	-0.0102085	
-8.06041	-10.5446	-0.00911542	
-8.76471	-11.4434	-0.00811773	
-9.49088	-12.3551	-0.00720684	
-10.2375	-13.2783	-0.00637486	
-11.0033	-14.2115	-0.00561463	
-11.7868	-15.1537	-0.00491966	
-12.5869	-16.1037	-0.00428402	
-13.4023	-17.0608	-0.00370234	
-14.2318	-18.024	-0.00316972	
-15.0745	-18.9928	-0.00268173	
-15.9292	-19.9664	-0.00223431	
-16.795	-20.9445	-0.00182376	
-17.6711	-21.9264	-0.00144671	
-18.5566	-22.9118	-0.00110008	
-19.4506	-23.9003	-0.000781073	
-20.3526	-24.8916	-0.000487096	
-21.2617	-25.8855	-0.00021579	
-22.1774	-26.8817	3.50131e-005	
-23.099	-27.8799	0.000267292	
-24.026	-28.88	0.000482819	
-24.9578	-29.8818	0.000683107	
-25.894	-30.8851	0.000869326	
-26.8342	-31.8899	0.00104232	
-27.7778	-32.8961	0.00120321	
-28.7244	-33.9034	0.00135605	
-29.6737	-34.9119	0.00151537	
-30.6251	-35.9216	0.00172287	
-31.5781	-36.9324	0.00207066	
-32.5319	-37.9444	0.00268917	
-33.4856	-38.9567	0.00357863	
-34.4396	-39.9659	0.00383267	
-35.405	-40.9652	0.0024123	
-36.3835	-41.9665	-0.0014562	
-1.46865e-011	1.79605e-012	-7.49137e-013	
-0.115206	-0.0648275	-0.0144103	
-0.272969	-0.253002	-0.0229965	
-0.451319	-0.531391	-0.0252277	
-0.654242	-0.896832	-0.0236949	
-0.885868	-1.33952	-0.0213312	
-1.15003	-1.85121	-0.0189852	