# vtk DataFile Version 4.1
vtk output
ASCII
DATASET UNSTRUCTURED_GRID

POINTS	961	float
0	0	0	
0	0.00298889	0	
0	0.00687444	0	
0	0.0119257	0	
0	0.0184922	0	
0	0.0270288	0	
0	0.0381263	0	
0	0.0525531	0	
0	0.071308	0	
0	0.0956892	0	
0	0.127385	0	
0	0.168589	0	
0	0.222155	0	
0	0.29179	0	
0	0.382316	0	
0	0.5	0	
0	0.617684	0	
0	0.70821	0	
0	0.777845	0	
0	0.831411	0	
0	0.872615	0	
0	0.904311	0	
0	0.928692	0	
0	0.947447	0	
0	0.961874	0	
0	0.972971	0	
0	0.981508	0	
0	0.988074	0	
0	0.993126	0	
0	0.997011	0	
0	1	0	
0.00298889	0	0	
0.00298889	0.00298889	0	
0.00298889	0.00687444	0	
0.00298889	0.0119257	0	
0.00298889	0.0184922	0	
0.00298889	0.0270288	0	
0.00298889	0.0381263	0	
0.00298889	0.0525531	0	
0.00298889	0.071308	0	
0.00298889	0.0956892	0	
0.00298889	0.127385	0	
0.00298889	0.168589	0	
0.00298889	0.222155	0	
0.00298889	0.29179	0	
0.00298889	0.382316	0	
0.00298889	0.5	0	
0.00298889	0.617684	0	
0.00298889	0.70821	0	
0.00298889	0.777845	0	
0.00298889	0.831411	0	
0.00298889	0.872615	0	
0.00298889	0.904311	0	
0.00298889	0.928692	0	
0.00298889	0.947447	0	
0.00298889	0.961874	0	
0.00298889	0.972971	0	
0.00298889	0.981508	0	
0.00298889	0.988074	0	
0.00298889	0.993126	0	
0.00298889	0.997011	0	
0.00298889	1	0	
0.00687444	0	0	
0.00687444	0.00298889	0	
0.00687444	0.00687444	0	
0.00687444	0.0119257	0	
0.00687444	0.0184922	0	
0.00687444	0.0270288	0	
0.00687444	0.0381263	0	
0.00687444	0.0525531	0	
0.00687444	0.071308	0	
0.00687444	0.0956892	0	
0.00687444	0.127385	0	
0.00687444	0.168589	0	
0.00687444	0.222155	0	
0.00687444	0.29179	0	
0.00687444	0.382316	0	
0.00687444	0.5	0	
0.00687444	0.617684	0	
0.00687444	0.70821	0	
0.00687444	0.777845	0	
0.00687444	0.831411	0	
0.00687444	0.872615	0	
0.00687444	0.904311	0	
0.00687444	0.928692	0	
0.00687444	0.947447	0	
0.00687444	0.961874	0	
0.00687444	0.972971	0	
0.00687444	0.981508	0	
0.00687444	0.988074	0	
0.00687444	0.993126	0	
0.00687444	0.997011	0	
0.00687444	1	0	
0.0119257	0	0	
0.0119257	0.00298889	0	
0.0119257	0.00687444	0	
0.0119257	0.0119257	0	
0.0119257	0.0184922	0	
0.0119257	0.0270288	0	
0.0119257	0.0381263	0	
0.0119257	0.0525531	0	
0.0119257	0.071308	0	
0.0119257	0.0956892	0	
0.0119257	0.127385	0	
0.0119257	0.168589	0	
0.0119257	0.222155	0	
0.0119257	0.29179	0	
0.0119257	0.382316	0	
0.0119257	0.5	0	
0.0119257	0.617684	0	
0.0119257	0.70821	0	
0.0119257	0.777845	0	
0.0119257	0.831411	0	
0.0119257	0.872615	0	
0.0119257	0.904311	0	
0.0119257	0.928692	0	
0.0119257	0.947447	0	
0.0119257	0.961874	0	
0.0119257	0.972971	0	
0.0119257	0.981508	0	
0.0119257	0.988074	0	
0.0119257	0.993126	0	
0.0119257	0.997011	0	
0.0119257	1	0	
0.0184922	0	0	
0.0184922	0.00298889	0	
0.0184922	0.00687444	0	
0.0184922	0.0119257	0	
0.0184922	0.0184922	0	
0.0184922	0.0270288	0	
0.0184922	0.0381263	0	
0.0184922	0.0525531	0	
0.0184922	0.071308	0	
0.0184922	0.0956892	0	
0.0184922	0.127385	0	
0.0184922	0.168589	0	
0.0184922	0.222155	0	
0.0184922	0.29179	0	
0.0184922	0.382316	0	
0.0184922	0.5	0	
0.0184922	0.617684	0	
0.0184922	0.70821	0	
0.0184922	0.777845	0	
0.0184922	0.831411	0	
0.0184922	0.872615	0	
0.0184922	0.904311	0	
0.0184922	0.928692	0	
0.0184922	0.947447	0	
0.0184922	0.961874	0	
0.0184922	0.972971	0	
0.0184922	0.981508	0	
0.0184922	0.988074	0	
0.0184922	0.993126	0	
0.0184922	0.997011	0	
0.0184922	1	0	
0.0270288	0	0	
0.0270288	0.00298889	0	
0.0270288	0.00687444	0	
0.0270288	0.0119257	0	
0.0270288	0.0184922	0	
0.0270288	0.0270288	0	
0.0270288	0.0381263	0	
0.0270288	0.0525531	0	
0.0270288	0.071308	0	
0.0270288	0.0956892	0	
0.0270288	0.127385	0	
0.0270288	0.168589	0	
0.0270288	0.222155	0	
0.0270288	0.29179	0	
0.0270288	0.382316	0	
0.0270288	0.5	0	
0.0270288	0.617684	0	
0.0270288	0.70821	0	
0.0270288	0.777845	0	
0.0270288	0.831411	0	
0.0270288	0.872615	0	
0.0270288	0.904311	0	
0.0270288	0.928692	0	
0.0270288	0.947447	0	
0.0270288	0.961874	0	
0.0270288	0.972971	0	
0.0270288	0.981508	0	
0.0270288	0.988074	0	
0.0270288	0.993126	0	
0.0270288	0.997011	0	
0.0270288	1	0	
0.0381263	0	0	
0.0381263	0.00298889	0	
0.0381263	0.00687444	0	
0.0381263	0.0119257	0	
0.0381263	0.0184922	0	
0.0381263	0.0270288	0	
0.0381263	0.0381263	0	
0.0381263	0.0525531	0	
0.0381263	0.071308	0	
0.0381263	0.0956892	0	
0.0381263	0.127385	0	
0.0381263	0.168589	0	
0.0381263	0.222155	0	
0.0381263	0.29179	0	
0.0381263	0.382316	0	
0.0381263	0.5	0	
0.0381263	0.617684	0	
0.0381263	0.70821	0	
0.0381263	0.777845	0	
0.0381263	0.831411	0	
0.0381263	0.872615	0	
0.0381263	0.904311	0	
0.0381263	0.928692	0	
0.0381263	0.947447	0	
0.0381263	0.961874	0	
0.0381263	0.972971	0	
0.0381263	0.981508	0	
0.0381263	0.988074	0	
0.0381263	0.993126	0	
0.0381263	0.997011	0	
0.0381263	1	0	
0.0525531	0	0	
0.0525531	0.00298889	0	
0.0525531	0.00687444	0	
0.0525531	0.0119257	0	
0.0525531	0.0184922	0	
0.0525531	0.0270288	0	
0.0525531	0.0381263	0	
0.0525531	0.0525531	0	
0.0525531	0.071308	0	
0.0525531	0.0956892	0	
0.0525531	0.127385	0	
0.0525531	0.168589	0	
0.0525531	0.222155	0	
0.0525531	0.29179	0	
0.0525531	0.382316	0	
0.0525531	0.5	0	
0.0525531	0.617684	0	
0.0525531	0.70821	0	
0.0525531	0.777845	0	
0.0525531	0.831411	0	
0.0525531	0.872615	0	
0.0525531	0.904311	0	
0.0525531	0.928692	0	
0.0525531	0.947447	0	
0.0525531	0.961874	0	
0.0525531	0.972971	0	
0.0525531	0.981508	0	
0.0525531	0.988074	0	
0.0525531	0.993126	0	
0.0525531	0.997011	0	
0.0525531	1	0	
0.071308	0	0	
0.071308	0.00298889	0	
0.071308	0.00687444	0	
0.071308	0.0119257	0	
0.071308	0.0184922	0	
0.071308	0.0270288	0	
0.071308	0.0381263	0	
0.071308	0.0525531	0	
0.071308	0.071308	0	
0.071308	0.0956892	0	
0.071308	0.127385	0	
0.071308	0.168589	0	
0.071308	0.222155	0	
0.071308	0.29179	0	
0.071308	0.382316	0	
0.071308	0.5	0	
0.071308	0.617684	0	
0.071308	0.70821	0	
0.071308	0.777845	0	
0.071308	0.831411	0	
0.071308	0.872615	0	
0.071308	0.904311	0	
0.071308	0.928692	0	
0.071308	0.947447	0	
0.071308	0.961874	0	
0.071308	0.972971	0	
0.071308	0.981508	0	
0.071308	0.988074	0	
0.071308	0.993126	0	
0.071308	0.997011	0	
0.071308	1	0	
0.0956892	0	0	
0.0956892	0.00298889	0	
0.0956892	0.00687444	0	
0.0956892	0.0119257	0	
0.0956892	0.0184922	0	
0.0956892	0.0270288	0	
0.0956892	0.0381263	0	
0.0956892	0.0525531	0	
0.0956892	0.071308	0	
0.0956892	0.0956892	0	
0.0956892	0.127385	0	
0.0956892	0.168589	0	
0.0956892	0.222155	0	
0.0956892	0.29179	0	
0.0956892	0.382316	0	
0.0956892	0.5	0	
0.0956892	0.617684	0	
0.0956892	0.70821	0	
0.0956892	0.777845	0	
0.0956892	0.831411	0	
0.0956892	0.872615	0	
0.0956892	0.904311	0	
0.0956892	0.928692	0	
0.0956892	0.947447	0	
0.0956892	0.961874	0	
0.0956892	0.972971	0	
0.0956892	0.981508	0	
0.0956892	0.988074	0	
0.0956892	0.993126	0	
0.0956892	0.997011	0	
0.0956892	1	0	
0.127385	0	0	
0.127385	0.00298889	0	
0.127385	0.00687444	0	
0.127385	0.0119257	0	
0.127385	0.0184922	0	
0.127385	0.0270288	0	
0.127385	0.0381263	0	
0.127385	0.0525531	0	
0.127385	0.071308	0	
0.127385	0.0956892	0	
0.127385	0.127385	0	
0.127385	0.168589	0	
0.127385	0.222155	0	
0.127385	0.29179	0	
0.127385	0.382316	0	
0.127385	0.5	0	
0.127385	0.617684	0	
0.127385	0.70821	0	
0.127385	0.777845	0	
0.127385	0.831411	0	
0.127385	0.872615	0	
0.127385	0.904311	0	
0.127385	0.928692	0	
0.127385	0.947447	0	
0.127385	0.961874	0	
0.127385	0.972971	0	
0.127385	0.981508	0	
0.127385	0.988074	0	
0.127385	0.993126	0	
0.127385	0.997011	0	
0.127385	1	0	
0.168589	0	0	
0.168589	0.00298889	0	
0.168589	0.00687444	0	
0.168589	0.0119257	0	
0.168589	0.0184922	0	
0.168589	0.0270288	0	
0.168589	0.0381263	0	
0.168589	0.0525531	0	
0.168589	0.071308	0	
0.168589	0.0956892	0	
0.168589	0.127385	0	
0.168589	0.168589	0	
0.168589	0.222155	0	
0.168589	0.29179	0	
0.168589	0.382316	0	
0.168589	0.5	0	
0.168589	0.617684	0	
0.168589	0.70821	0	
0.168589	0.777845	0	
0.168589	0.831411	0	
0.168589	0.872615	0	
0.168589	0.904311	0	
0.168589	0.928692	0	
0.168589	0.947447	0	
0.168589	0.961874	0	
0.168589	0.972971	0	
0.168589	0.981508	0	
0.168589	0.988074	0	
0.168589	0.993126	0	
0.168589	0.997011	0	
0.168589	1	0	
0.222155	0	0	
0.222155	0.00298889	0	
0.222155	0.00687444	0	
0.222155	0.0119257	0	
0.222155	0.0184922	0	
0.222155	0.0270288	0	
0.222155	0.0381263	0	
0.222155	0.0525531	0	
0.222155	0.071308	0	
0.222155	0.0956892	0	
0.222155	0.127385	0	
0.222155	0.168589	0	
0.222155	0.222155	0	
0.222155	0.29179	0	
0.222155	0.382316	0	
0.222155	0.5	0	
0.222155	0.617684	0	
0.222155	0.70821	0	
0.222155	0.777845	0	
0.222155	0.831411	0	
0.222155	0.872615	0	
0.222155	0.904311	0	
0.222155	0.928692	0	
0.222155	0.947447	0	
0.222155	0.961874	0	
0.222155	0.972971	0	
0.222155	0.981508	0	
0.222155	0.988074	0	
0.222155	0.993126	0	
0.222155	0.997011	0	
0.222155	1	0	
0.29179	0	0	
0.29179	0.00298889	0	
0.29179	0.00687444	0	
0.29179	0.0119257	0	
0.29179	0.0184922	0	
0.29179	0.0270288	0	
0.29179	0.0381263	0	
0.29179	0.0525531	0	
0.29179	0.071308	0	
0.29179	0.0956892	0	
0.29179	0.127385	0	
0.29179	0.168589	0	
0.29179	0.222155	0	
0.29179	0.29179	0	
0.29179	0.382316	0	
0.29179	0.5	0	
0.29179	0.617684	0	
0.29179	0.70821	0	
0.29179	0.777845	0	
0.29179	0.831411	0	
0.29179	0.872615	0	
0.29179	0.904311	0	
0.29179	0.928692	0	
0.29179	0.947447	0	
0.29179	0.961874	0	
0.29179	0.972971	0	
0.29179	0.981508	0	
0.29179	0.988074	0	
0.29179	0.993126	0	
0.29179	0.997011	0	
0.29179	1	0	
0.382316	0	0	
0.382316	0.00298889	0	
0.382316	0.00687444	0	
0.382316	0.0119257	0	
0.382316	0.0184922	0	
0.382316	0.0270288	0	
0.382316	0.0381263	0	
0.382316	0.0525531	0	
0.382316	0.071308	0	
0.382316	0.0956892	0	
0.382316	0.127385	0	
0.382316	0.168589	0	
0.382316	0.222155	0	
0.382316	0.29179	0	
0.382316	0.382316	0	
0.382316	0.5	0	
0.382316	0.617684	0	
0.382316	0.70821	0	
0.382316	0.777845	0	
0.382316	0.831411	0	
0.382316	0.872615	0	
0.382316	0.904311	0	
0.382316	0.928692	0	
0.382316	0.947447	0	
0.382316	0.961874	0	
0.382316	0.972971	0	
0.382316	0.981508	0	
0.382316	0.988074	0	
0.382316	0.993126	0	
0.382316	0.997011	0	
0.382316	1	0	
0.5	0	0	
0.5	0.00298889	0	
0.5	0.00687444	0	
0.5	0.0119257	0	
0.5	0.0184922	0	
0.5	0.0270288	0	
0.5	0.0381263	0	
0.5	0.0525531	0	
0.5	0.071308	0	
0.5	0.0956892	0	
0.5	0.127385	0	
0.5	0.168589	0	
0.5	0.222155	0	
0.5	0.29179	0	
0.5	0.382316	0	
[...]
POINT_DATA	961
VECTORS u float
0	0	0	
0	0	0	
0	0	0	
0	0	0	
0	0	0	
0	0	0	
0	0	0	
0	0	0	
0	0	0	
0	0	0	
0	0	0	
0	0	0	
0	0	0	
0	0	0	
0	0	0	
0	0	0	
0	0	0	
0	0	0	
0	0	0	
0	0	0	
0	0	0	
0	0	0	
0	0	0	
0	0	0	
0	0	0	
0	0	0	
0	0	0	
0	0	0	
0	0	0	
0	0	0	
1	0	0	
0	0	0	
-1.2253e-006	1.22158e-006	0	
1.08179e-006	6.33844e-007	0	
6.30833e-006	-9.51176e-006	0	
1.38992e-005	-4.04866e-005	0	
2.18006e-005	-0.000106396	0	
2.68169e-005	-0.000218925	0	
2.98554e-005	-0.000393606	0	
2.37314e-005	-0.00059901	0	
1.33522e-005	-0.000806012	0	
-1.94846e-005	-0.000761292	0	
-7.38249e-005	-1.46659e-005	0	
-0.000156925	0.00263898	0	
-0.000250001	0.00845624	0	
-0.000184615	0.0178436	0	
6.67968e-005	0.0212307	0	
0.000188831	0.0139946	0	
0.000144989	0.00731106	0	
9.46709e-005	0.00383606	0	
2.8207e-005	0.00231648	0	
-6.25007e-005	0.00259143	0	
-0.000333347	0.00501283	0	
-0.000861691	0.0109292	0	
-0.00179292	0.0208602	0	
-0.00337274	0.0353447	0	
-0.00619348	0.0552337	0	
-0.0107355	0.081236	0	
-0.0111088	0.110721	0	
0.0107341	0.129417	0	
0.274906	0.0545055	0	
1	0	0	
0	0	0	
-6.35141e-007	-1.08622e-006	0	
9.05182e-006	-9.05996e-006	0	
2.80949e-005	-3.73164e-005	0	
5.3583e-005	-0.00010754	0	
7.97767e-005	-0.000248877	0	
9.87147e-005	-0.000488616	0	
0.000106398	-0.000853608	0	
8.76699e-005	-0.00128797	0	
4.20839e-005	-0.0017008	0	
-7.53963e-005	-0.00155515	0	
-0.000286854	0.00017214	0	
-0.000585091	0.00605458	0	
-0.000932779	0.0187944	0	
-0.000685803	0.0392927	0	
0.000219393	0.0473926	0	
0.000701587	0.0320821	0	
0.0005599	0.0172137	0	
0.000360272	0.00925128	0	
0.000120466	0.00574836	0	
-0.000247199	0.00630532	0	
-0.0012238	0.0116167	0	
-0.00311012	0.0240928	0	
-0.00627692	0.044288	0	
-0.0113118	0.0721786	0	
-0.019452	0.106847	0	
-0.0289799	0.143695	0	
-0.024847	0.167725	0	
0.067537	0.139102	0	
0.397632	0.0594088	0	
1	0	0	
0	0	0	
9.52399e-006	-6.32138e-006	0	
3.73154e-005	-2.81228e-005	0	
8.3833e-005	-8.38599e-005	0	
0.000143884	-0.000203608	0	
0.000205938	-0.000430144	0	
0.000253123	-0.000806363	0	
0.000268254	-0.0013683	0	
0.00022247	-0.00203619	0	
9.12971e-005	-0.00262512	0	
-0.000213763	-0.00227797	0	
-0.000785432	0.000725376	0	
-0.0015459	0.0104492	0	
-0.00244878	0.0311481	0	
-0.00181946	0.0643345	0	
0.000496135	0.0790052	0	
0.00183613	0.0553669	0	
0.00153015	0.0307206	0	
0.000986126	0.0169931	0	
0.000354077	0.01088	0	
-0.000670554	0.0116389	0	
-0.00315335	0.0201082	0	
-0.00779104	0.0390725	0	
-0.0150858	0.0681496	0	
-0.0255992	0.104996	0	
-0.0391865	0.143701	0	
-0.0472039	0.171159	0	
-0.0121908	0.164049	0	
0.148213	0.111019	0	
0.506567	0.0408344	0	
1	0	0	
0	0	0	
4.05278e-005	-1.39118e-005	0	
0.000107526	-5.35677e-005	0	
0.000203527	-0.000143746	0	
0.000322193	-0.000321898	0	
0.000444598	-0.000640543	0	
0.000538904	-0.00115361	0	
0.000563395	-0.00190156	0	
0.000461099	-0.00277402	0	
0.000153259	-0.00346093	0	
-0.000520411	-0.00274522	0	
-0.00180032	0.00189705	0	
-0.00343219	0.0160565	0	
-0.00536853	0.0454949	0	
-0.00407352	0.0924277	0	
0.000884977	0.116117	0	
0.00400723	0.0850696	0	
0.00351807	0.0492281	0	
0.00229855	0.0281787	0	
0.000872947	0.0185938	0	
-0.00147735	0.0192599	0	
-0.00669906	0.0306212	0	
-0.0159251	0.0546813	0	
-0.0292391	0.088838	0	
-0.0455449	0.126823	0	
-0.0595461	0.157008	0	
-0.0498935	0.162806	0	
0.032978	0.132737	0	
0.247122	0.0771365	0	
0.598806	0.0253835	0	
1	0	0	
0	0	0	
0.000106258	-2.16962e-005	0	
0.00024839	-7.93752e-005	0	
0.000429275	-0.000204798	0	
0.000640216	-0.000442188	0	
0.000852907	-0.000849418	0	
0.00101377	-0.00148298	0	
0.00104165	-0.00237558	0	
0.0008256	-0.00337138	0	
0.000187173	-0.00400252	0	
-0.0011532	-0.00265715	0	
-0.00368285	0.00405572	0	
-0.00680887	0.0231496	0	
-0.0104516	0.0616487	0	
-0.00816575	0.122352	0	
0.00122853	0.15784	0	
0.00772306	0.122231	0	
0.00724105	0.0745426	0	
0.00485505	0.0444305	0	
0.00195445	0.0301829	0	
-0.00276925	0.0300134	0	
-0.0123167	0.0430038	0	
-0.0279299	0.0689834	0	
-0.0479558	0.102256	0	
-0.0669146	0.132898	0	
-0.0708697	0.147272	0	
-0.0289181	0.134579	0	
0.10258	0.096574	0	
0.346282	0.0500619	0	
0.672439	0.0152756	0	
1	0	0	
0	0	0	
0.000217809	-2.64084e-005	0	
0.000485716	-9.70712e-005	0	
0.000801645	-0.000248844	0	
0.0011489	-0.000530264	0	
0.00148385	-0.000999547	0	
0.00172165	-0.00170529	0	
0.00172213	-0.00265188	0	
0.00128174	-0.00361422	0	
5.91443e-005	-0.00392733	0	
-0.00241997	-0.00156673	0	
-0.00699002	0.00772384	0	
-0.0124845	0.0321022	0	
-0.0186437	0.079444	0	
-0.0150515	0.152463	0	
0.00108525	0.201859	0	
0.0134625	0.166992	0	
0.0137403	0.108644	0	
0.00960187	0.0679422	0	
0.00415788	0.047436	0	
-0.00439137	0.0448999	0	
-0.0198709	0.056862	0	
-0.0427955	0.0800283	0	
-0.0679859	0.106186	0	
-0.0831869	0.12441	0	
-0.0664312	0.123948	0	
0.0139146	0.101737	0	
0.183709	0.0659631	0	
0.437394	0.0313017	0	
0.729777	0.00903855	0	
1	0	0	
0	0	0	
0.000387313	-2.85485e-005	0	
0.000840585	-0.000102049	0	
0.00134966	-0.000258128	0	
0.0018822	-0.000544606	0	
0.0023667	-0.0010126	0	
0.00266932	-0.00169007	0	
0.00256285	-0.00252658	0	
0.00170058	-0.00319579	0	
-0.000501998	-0.00278593	0	
-0.00481646	0.00113663	0	
-0.0124989	0.0136333	0	
-0.0215209	0.0435907	0	
-0.0310624	0.0992668	0	
-0.0258656	0.181836	0	
-0.000418404	0.24452	0	
0.0213379	0.217372	0	
0.0242357	0.152771	0	
0.0179958	0.101186	0	
0.00858875	0.0725341	0	
-0.00544308	0.0650091	0	
-0.0278556	0.0719299	0	
-0.0574332	0.0871996	0	
-0.0842405	0.102078	0	
-0.0888062	0.107497	0	
-0.0449842	0.0970929	0	
0.0715987	0.0726323	0	
0.266676	0.0432227	0	
0.516052	0.0191397	0	
0.774086	0.00532896	0	
1	0	0	
0	0	0	
0.000581486	-2.18076e-005	0	
0.00125379	-8.11623e-005	0	
0.00199123	-0.000208456	0	
0.00273216	-0.000439271	0	
0.00335577	-0.000802478	0	
0.00364794	-0.00128639	0	
0.00324969	-0.00175385	0	
0.00160028	-0.00174118	0	
-0.00221845	-2.57802e-005	0	
-0.00940116	0.00622563	0	
-0.0216087	0.0228211	0	
-0.0355967	0.0589648	0	
-0.0491277	0.12278	0	
-0.0414983	0.211965	0	
-0.00429787	0.282619	0	
0.0307	0.268246	0	
0.0397175	0.205369	0	
0.0320963	0.145596	0	
0.0173832	0.107358	0	
-0.00352987	0.0912805	0	
-0.0326913	0.0885177	0	
-0.066723	0.0918258	0	
-0.0910995	0.0938734	0	
-0.0803234	0.0885074	0	
-0.00831759	0.0727185	0	
0.13742	0.0500122	0	
0.345175	0.0276872	0	
0.581542	0.0116324	0	
0.808234	0.00316136	0	
1	0	0	
0	0	0	
0.000777002	-1.39729e-005	0	
0.00165622	-4.71005e-005	0	
0.00259145	-0.000111905	0	
0.00348164	-0.000216816	0	
0.00413521	-0.000347573	0	
0.00421756	-0.000424681	0	
0.00317389	-0.000183102	0	
0.000133924	0.00103458	0	
-0.00625856	0.0048468	0	
-0.0177433	0.0145577	0	
-0.0362925	0.0367124	0	
-0.0569464	0.0805239	0	
-0.0748435	0.153018	0	
-0.0625891	0.246111	0	
-0.0111233	0.316112	0	
0.0400829	0.31259	0	
0.0596742	0.259689	0	
0.0536556	0.198444	0	
0.0339109	0.151278	0	
0.00614381	0.123406	0	
-0.0280164	0.107079	0	
-0.063516	0.0961681	0	
-0.0825508	0.0856073	0	
-0.0552703	0.0718439	0	
0.0412731	0.0536219	0	
0.206518	0.0340749	0	
0.416196	0.0177466	0	
0.635331	0.00717104	0	
0.834823	0.00192124	0	
1	0	0	
0	0	0	
0.000830772	3.90447e-006	0	
0.00174932	1.53792e-005	0	
0.00267863	4.84542e-005	0	
0.00345837	0.00013756	0	
0.00379059	0.00036566	0	
0.00315971	0.000923055	0	
0.00071911	0.00226632	0	
-0.00485369	0.00534937	0	
-0.015485	0.0123237	0	
-0.03355	0.0271723	0	
-0.0608536	0.0571119	0	
-0.0898312	0.110523	0	
-0.110653	0.191557	0	
-0.088722	0.283194	0	
-0.0198539	0.34517	0	
0.0487078	0.345008	0	
0.0823187	0.304059	0	
0.0831864	0.249161	0	
0.0622757	0.197467	0	
0.0305203	0.157631	0	
-0.00537481	0.126637	0	
-0.0393204	0.101657	0	
-0.0518932	0.0799062	0	
-0.0106557	0.0597246	0	
0.102804	0.0405034	0	
0.276853	0.0239377	0	
0.480133	0.0118783	0	
0.680323	0.00468504	0	
0.856303	0.00125321	0	
1	0	0	
0	0	0	
0.000661845	1.58896e-005	0	
0.00131386	6.68866e-005	0	
0.00181851	0.00019937	0	
0.00191604	0.000504561	0	
0.00114446	0.00116744	0	
-0.00127875	0.00255569	0	
-0.00661899	0.00541538	0	
-0.016826	0.0112098	0	
-0.034535	0.0228131	0	
-0.062551	0.0451483	0	
-0.100948	0.0851801	0	
-0.138614	0.14832	0	
-0.15724	0.232508	0	
-0.118384	0.311308	0	
-0.0291937	0.358516	0	
0.0569579	0.35885	0	
0.105552	0.327405	0	
0.118527	0.281487	0	
0.104531	0.230845	0	
0.0762215	0.1839	0	
0.0438638	0.142361	0	
0.014325	0.107378	0	
0.00784716	0.0779949	0	
0.0577842	0.0535598	0	
0.178209	0.0336626	0	
0.350444	0.0188051	0	
0.540824	0.00903329	0	
0.720943	0.0035294	0	
0.875413	0.000953039	0	
1	0	0	
0	0	0	
-1.90804e-007	4.1743e-005	0	
-0.000281245	0.000166217	0	
-0.00110794	0.000473337	0	
-0.00293289	0.00114263	0	
-0.00650994	0.00250513	0	
-0.0130591	0.0051919	0	
-0.024467	0.0103648	0	
-0.0434211	0.0201793	0	
-0.0729569	0.0380951	0	
-0.114724	0.0690662	0	
-0.164046	0.117212	0	
-0.205344	0.182912	0	
-0.20915	0.255422	0	
-0.145011	0.307133	0	
-0.0374476	0.333363	0	
0.0639195	0.336552	0	
0.129059	0.316462	0	
0.158768	0.28035	0	
0.159952	0.234501	0	
0.144011	0.187445	0	
0.121197	0.143494	0	
0.0988426	0.105894	0	
0.0986263	0.0745227	0	
0.153368	0.0492329	0	
0.272754	0.0298037	0	
0.434497	0.0161855	0	
0.606058	0.00765332	0	
0.763388	0.00297754	0	
0.895305	0.000807321	0	
1	0	0	
0	0	0	
-0.00184193	8.1085e-005	0	
-0.00459023	0.000316395	0	
-0.00874645	0.000884006	0	
-0.0150976	0.00209992	0	
-0.0248555	0.00451808	0	
-0.0398067	0.00909632	0	
-0.0623509	0.0173678	0	
-0.0950881	0.0316484	0	
-0.139523	0.0546115	0	
-0.193257	0.0888235	0	
-0.246412	0.134539	0	
-0.277867	0.187686	0	
-0.251451	0.231238	0	
-0.160481	0.248653	0	
-0.0437951	0.256522	0	
0.0657901	0.263048	0	
0.147268	0.257412	0	
0.199246	0.23622	0	
0.223344	0.202651	0	
0.226957	0.16477	0	
0.218463	0.127529	0	
0.206219	0.0948327	0	
0.214028	0.0668461	0	
0.272342	0.043856	0	
0.385934	0.0261964	0	
0.531282	0.0140125	0	
0.679147	0.00653384	0	
0.810253	0.00251183	0	
0.917145	0.00067453	0	
1	0	0	
0	0	0	
-0.00616627	0.000148145	0	
-0.014482	0.000564805	0	
-0.025761	0.00151646	0	
-0.0411078	0.00340989	0	
-0.0619405	0.00683753	0	
-0.0898795	0.0125956	0	
-0.12636	0.0216467	0	
-0.171873	0.0348727	0	
-0.225046	0.0530278	0	
-0.281116	0.0764547	0	
-0.326907	0.104685	0	
-0.332629	0.131033	0	
-0.267818	0.142985	0	
-0.162156	0.141334	0	
-0.0493457	0.147186	0	
0.0618263	0.155626	0	
0.155211	0.156444	0	
0.229074	0.14889	0	
0.278129	0.131671	0	
0.304549	0.110208	0	
0.313357	0.0877932	0	
0.315128	0.0673207	0	
0.336849	0.04836	0	
0.40317	0.0317759	0	
0.511023	0.0187023	0	
0.636755	0.00975609	0	
0.757012	0.00440937	0	
0.858941	0.00163745	0	
0.939276	0.000424508	0	
1	0	0	
0	0	0	
-0.012808	6.47682e-005	0	
-0.0288631	0.000215478	0	
-0.0487725	0.000507678	0	
-0.0731171	0.000985474	0	
-0.102354	0.00163797	0	
-0.13673	0.00232703	0	
-0.176381	0.00276344	0	
-0.221852	0.00262913	0	
-0.274091	0.00224554	0	
-0.3297	0.00283328	0	
-0.367953	0.00583476	0	
-0.351431	0.0100931	0	
-0.266483	0.0133458	0	
-0.165454	0.0152227	0	
-0.0609936	0.0259179	0	
0.0541096	0.039275	0	
0.154103	0.0461457	0	
0.240199	0.0496594	0	
0.306753	0.0485194	0	
0.349412	0.0451301	0	
0.371657	0.0396612	0	
0.390269	0.0330322	0	
0.43265	0.0244786	0	
0.511048	0.0159203	0	
0.613877	0.0089775	0	
0.720524	0.00440153	0	
0.815852	0.00184118	0	
0.893734	0.000623358	0	
0.954214	0.000144712	0	
1	0	0	
0	0	0	
-0.00878102	-0.000215641	0	
-0.0196268	-0.000790791	0	
-0.0328511	-0.00206947	0	
-0.0487887	-0.00456429	0	
-0.0679319	-0.0090037	0	
-0.0913635	-0.016311	0	
-0.121615	-0.027606	0	
-0.163355	-0.0435957	0	
-0.220835	-0.0647648	0	
-0.290293	-0.0892771	0	
-0.348679	-0.112968	0	
-0.355373	-0.124591	0	
-0.278212	-0.117249	0	
-0.17314	-0.103663	0	
-0.0750407	-0.0986501	0	
0.0360631	-0.0740932	0	
0.138125	-0.0580531	0	
0.221469	-0.0381165	0	
0.289508	-0.0211375	0	
0.335024	-0.00710317	0	
0.36626	0.00273029	0	
0.404039	0.00679861	0	
0.467591	0.00635056	0	
0.556576	0.00406069	0	
0.6566	0.00195702	0	
0.75248	0.000697954	0	
0.835583	0.000149029	0	
0.903587	-1.04024e-005	0	
0.957624	-1.99233e-005	0	
1	0	0	
0	0	0	
0.0012406	-0.000221319	0	
0.00217007	-0.000832161	0	
0.00229158	-0.00220054	0	
0.000737594	-0.00486457	0	
-0.00395606	-0.00960085	0	
-0.0141757	-0.0173664	0	
-0.0335569	-0.0298359	0	
-0.0669818	-0.0484549	0	
-0.119474	-0.0777218	0	
-0.19365	-0.119219	0	
-0.279498	-0.175159	0	
-0.335602	-0.222896	0	
-0.29957	-0.235796	0	
-0.18233	-0.202832	0	
-0.0833529	-0.198188	0	
0.0119905	-0.177147	0	
0.109208	-0.142617	0	
0.176546	-0.106201	0	
0.242413	-0.0698628	0	
0.284805	-0.0408765	0	
0.326964	-0.019527	0	
0.383385	-0.0089769	0	
0.463215	-0.00419588	0	
0.559806	-0.00264125	0	
0.659984	-0.00181837	0	
0.752959	-0.00120808	0	
0.833518	-0.000684808	0	
0.900699	-0.000310638	0	
0.955611	-9.51757e-005	0	
1	0	0	
0	0	0	
0.00424313	-1.39415e-005	0	
0.00901495	-7.04469e-005	0	
0.0140084	-0.000243755	0	
0.0185683	-0.000695224	0	
0.0214879	-0.00177698	0	
0.02077	-0.00412899	0	
0.0134339	-0.00927032	0	
-0.00421445	-0.0193156	0	
-0.0365803	-0.0397442	0	
-0.0879499	-0.077117	0	
-0.16743	-0.145396	0	
-0.259808	-0.240494	0	
-0.299935	-0.320943	0	
-0.20848	-0.308165	0	
-0.0853217	-0.259497	0	
-0.00713454	-0.261868	0	
0.0678985	-0.202884	0	
0.129059	-0.161687	0	
0.179626	-0.106337	0	
0.225665	-0.0661849	0	
0.279415	-0.0375724	0	
0.352313	-0.0218555	0	
0.444012	-0.0130267	0	
0.546485	-0.00825539	0	
0.648503	-0.00509184	0	
0.742216	-0.00295534	0	
0.824134	-0.00151954	0	
0.893745	-0.000649581	0	
0.951926	-0.000193924	0	
1	0	0	
0	0	0	
0.00375322	4.82481e-005	0	
0.0081788	0.000173828	0	
0.0131782	0.000430737	0	
0.0184336	0.000862723	0	
0.023242	0.00145247	0	
0.0262949	0.00197333	0	
0.0254534	0.00181791	0	
0.0179319	-0.000705002	0	
0.000495592	-0.0085167	0	
-0.0282465	-0.0286313	0	
-0.0750263	-0.0745068	0	
-0.151886	-0.173573	0	
-0.239538	-0.318783	0	
-0.229536	-0.410754	0	
-0.102562	-0.343218	0	
-0.0193559	-0.309171	0	
0.0290635	-0.261323	0	
0.0834818	-0.203896	0	
0.115604	-0.144896	0	
0.170879	-0.0964688	0	
0.230775	-0.0634939	0	
0.315489	-0.0408444	0	
0.415059	-0.0269878	0	
0.52188	-0.0174013	0	
0.62639	-0.0108208	0	
0.722597	-0.00621569	0	
0.807971	-0.00318165	0	
0.882192	-0.00135887	0	
0.945894	-0.00040598	0	
1	0	0	
0	0	0	
0.00268648	7.37031e-005	0	
0.00592204	0.0002675	0	
0.00969989	0.000686565	0	
0.0138957	0.00146931	0	
0.0181586	0.0027717	0	
0.0217406	0.00466454	0	
0.0233021	0.00704132	0	
0.0207832	0.00890927	0	
0.012047	0.00844132	0	
-0.00446961	0.000581973	0	
-0.0283597	-0.0224124	0	
-0.0715739	-0.0873052	0	
-0.147556	-0.230688	0	
-0.203326	-0.42566	0	
-0.128757	-0.469003	0	
-0.038329	-0.373186	0	
0.00145429	-0.335324	0	
0.0394687	-0.254215	0	
0.0698218	-0.204122	0	
0.119834	-0.148066	0	
0.184234	-0.108526	0	
0.27265	-0.0760705	0	
0.375806	-0.0528307	0	
0.484984	-0.0349201	0	
0.592016	-0.0219612	0	
0.691882	-0.0127089	0	
0.782618	-0.00656396	0	
0.863978	-0.00283675	0	
0.936304	-0.000860192	0	
1	0	0	
0	0	0	
0.00171094	6.77226e-005	0	
0.00381487	0.00025669	0	
0.00633706	0.000680699	0	
0.00924011	0.00150205	0	
0.0123543	0.00293183	0	
0.0152592	0.00519183	0	
0.0171395	0.0084094	0	
0.0165929	0.0122628	0	
0.0122804	0.0155225	0	
0.00268065	0.0150031	0	
-0.00939898	0.00475323	0	
-0.0307003	-0.0306694	0	
-0.0748843	-0.131256	0	
-0.141967	-0.342048	0	
-0.129374	-0.534272	0	
-0.0610488	-0.494497	0	
-0.0239688	-0.439612	0	
0.00200235	-0.356752	0	
0.0329728	-0.294887	0	
0.0728902	-0.232754	0	
0.136647	-0.181807	0	
0.220294	-0.135173	0	
0.32225	-0.0961226	0	
0.431532	-0.0645855	0	
0.541016	-0.0407282	0	
0.645918	-0.0236038	0	
0.744475	-0.0121815	0	
0.836394	-0.00525219	0	
0.92166	-0.00158387	0	
1	0	0	
0	0	0	
0.00103373	6.64963e-005	0	
0.00232246	0.000244256	0	
0.00390096	0.000639194	0	
0.00577415	0.0014077	0	
0.00787095	0.00276165	0	
0.00995988	0.00497666	0	
0.0115461	0.00824088	0	
0.0116885	0.0126499	0	
0.00953022	0.0172154	0	
0.00381606	0.0202137	0	
-0.0023824	0.0165644	0	
-0.0128314	-0.00103919	0	
-0.0339997	-0.0622963	0	
-0.0838583	-0.227816	0	
-0.101394	-0.488218	0	
-0.0673106	-0.579464	0	
-0.0424102	-0.557321	0	
-0.0274209	-0.500919	0	
-0.00294211	-0.424843	0	
0.0309602	-0.352865	0	
0.0864739	-0.284354	0	
0.160135	-0.21973	0	
0.254586	-0.16006	0	
0.360868	-0.108997	0	
0.472393	-0.0689356	0	
0.583857	-0.0399235	0	
0.693038	-0.020548	0	
0.799256	-0.00883069	0	
0.901948	-0.00265069	0	
1	0	0	
0	0	0	
0.000547261	5.32516e-005	0	
0.00126392	0.000202058	0	
0.00218453	0.000537321	0	
0.00332809	0.00119528	0	
0.00466591	0.0023653	0	
0.00606238	0.00432702	0	
0.00720392	0.0072808	0	
0.00748369	0.0115419	0	
0.0063548	0.0162746	0	
0.0030256	0.0205973	0	
-0.0001492	0.0200453	0	
-0.00540159	0.0120095	0	
-0.0144823	-0.0238355	0	
-0.0446565	-0.134799	0	
-0.0663699	-0.380905	0	
-0.0552986	-0.558829	0	
-0.0443546	-0.611184	0	
-0.041994	-0.614941	0	
-0.0315197	-0.568555	0	
-0.00834595	-0.499047	0	
0.0347767	-0.415	0	
0.0957141	-0.329714	0	
0.176905	-0.246712	0	
0.275311	-0.171671	0	
0.386781	-0.109904	0	
0.505601	-0.0639489	0	
0.628045	-0.0329337	0	
0.752275	-0.0141227	0	
0.87691	-0.00421408	0	
1	0	0	
0	0	0	
0.000258646	4.24762e-005	0	
0.000624707	0.000157765	0	
0.00113153	0.000417963	0	
0.00180213	0.00093551	0	
0.00262478	0.00187267	0	
0.00351385	0.0034937	0	
0.00426906	0.00598508	0	
0.00451545	0.00975265	0	
0.00390351	0.0140369	0	
0.00200648	0.0184742	0	
0.000368457	0.0191742	0	
-0.00221577	0.0160844	0	
-0.00593831	-0.00483675	0	
-0.0222889	-0.0736123	0	
-0.0385601	-0.269869	0	
-0.0370654	-0.464411	0	
-0.0340037	-0.566134	0	
-0.038654	-0.629874	0	
-0.0410725	-0.648649	0	
-0.0341218	-0.62462	0	
-0.0098569	-0.55867	0	
0.032586	-0.466761	0	
0.0955666	-0.363048	0	
0.180278	-0.261067	0	
0.286759	-0.171575	0	
0.411336	-0.101548	0	
0.548603	-0.0527938	0	
0.694367	-0.0227567	0	
0.845756	-0.00678624	0	
1	0	0	
0	0	0	
9.24245e-005	2.64508e-005	0	
0.000257244	0.000103494	0	
0.000519729	0.000284057	0	
0.000896242	0.000656533	0	
0.00137756	0.00135582	0	
0.00190674	0.00261931	0	
0.00235823	0.00460551	0	
0.00252845	0.00773089	0	
0.00218313	0.0112813	0	
0.00117655	0.0152332	0	
0.000334499	0.0162173	0	
-0.000868278	0.0155836	0	
-0.00233872	0.00335823	0	
-0.0105235	-0.0374113	0	
-0.0204799	-0.180212	0	
-0.0215864	-0.349755	0	
-0.0213066	-0.460038	0	
-0.0266418	-0.548992	0	
-0.0336531	-0.616965	0	
-0.0377287	-0.655145	0	
-0.0322227	-0.648818	0	
-0.0137535	-0.596307	0	
0.0226366	-0.504786	0	
0.0833965	-0.389315	0	
0.174885	-0.269851	0	
0.29877	-0.165695	0	
0.450123	-0.0881746	0	
0.620974	-0.0384765	0	
0.805549	-0.0115352	0	
1	0	0	
0	0	0	
1.60147e-005	1.19203e-005	0	
8.01881e-005	5.3464e-005	0	
0.000208545	0.000161551	0	
0.000408596	0.000404375	0	
0.000671442	0.000891178	0	
0.000961451	0.00182217	0	
0.00120143	0.00331374	0	
0.00131073	0.00575241	0	
0.00110918	0.00846038	0	
0.000630413	0.0116606	0	
0.000196118	0.0124987	0	
-0.000302904	0.0129517	0	
-0.000879167	0.00586768	0	
-0.00465418	-0.0173692	0	
-0.00996823	-0.114879	0	
-0.011165	-0.244839	0	
-0.0114777	-0.339155	0	
-0.0150589	-0.422708	0	
-0.0208718	-0.50259	0	
-0.0271415	-0.573733	0	
-0.0305696	-0.621313	0	
-0.0292642	-0.633659	0	
-0.0195055	-0.603081	0	
0.00710351	-0.526268	0	
0.0649317	-0.409521	0	
0.168894	-0.274493	0	
0.324724	-0.153762	0	
0.52312	-0.0689492	0	
0.750309	-0.0207451	0	
1	0	0	
0	0	0	
-8.90488e-006	2.46693e-006	0	
1.15417e-005	1.68155e-005	0	
6.90295e-005	6.82769e-005	0	
0.000164899	0.000209161	0	
0.00029319	0.000522774	0	
0.000435993	0.00116332	0	
0.000541746	0.0021954	0	
0.00061134	0.00395959	0	
0.000491202	0.00583252	0	
0.000305446	0.00819318	0	
8.38693e-005	0.00875248	0	
-8.24659e-005	0.00953329	0	
-0.000310963	0.00555228	0	
-0.00186318	-0.00697677	0	
-0.00434508	-0.0691624	0	
-0.00507477	-0.158875	0	
-0.0053412	-0.228175	0	
-0.00718203	-0.29205	0	
-0.0104779	-0.359044	0	
-0.0147755	-0.428743	0	
-0.0188964	-0.492805	0	
-0.0226312	-0.542756	0	
-0.0254841	-0.571396	0	
-0.0241965	-0.568348	0	
-0.00738944	-0.518637	0	
0.0482683	-0.411879	0	
0.173955	-0.262863	0	
0.387532	-0.124743	0	
0.669714	-0.0378433	0	
1	0	0	
0	0	0	
-9.04698e-006	-3.47128e-006	0	
-4.72873e-006	-4.7859e-006	0	
1.72746e-005	1.15889e-005	0	
5.50543e-005	8.17514e-005	0	
0.000106934	0.000260984	0	
0.000168544	0.000655083	0	
0.000200806	0.00127704	0	
0.000244265	0.00240598	0	
0.000175592	0.00352597	0	
0.000129275	0.00504854	0	
2.22082e-005	0.00534469	0	
-8.78676e-006	0.00603816	0	
-0.000101266	0.00398104	0	
-0.000625409	-0.00210038	0	