# vtk DataFile Version 4.1
vtk output
ASCII
DATASET UNSTRUCTURED_GRID

POINTS	961	float
0	0	0	
0	0.0333333	0	
0	0.0666667	0	
0	0.1	0	
0	0.133333	0	
0	0.166667	0	
0	0.2	0	
0	0.233333	0	
0	0.266667	0	
0	0.3	0	
0	0.333333	0	
0	0.366667	0	
0	0.4	0	
0	0.433333	0	
0	0.466667	0	
0	0.5	0	
0	0.533333	0	
0	0.566667	0	
0	0.6	0	
0	0.633333	0	
0	0.666667	0	
0	0.7	0	
0	0.733333	0	
0	0.766667	0	
0	0.8	0	
0	0.833333	0	
0	0.866667	0	
0	0.9	0	
0	0.933333	0	
0	0.966667	0	
0	1	0	
0.0333333	0	0	
0.0333333	0.0333333	0	
0.0333333	0.0666667	0	
0.0333333	0.1	0	
0.0333333	0.133333	0	
0.0333333	0.166667	0	
0.0333333	0.2	0	
0.0333333	0.233333	0	
0.0333333	0.266667	0	
0.0333333	0.3	0	
0.0333333	0.333333	0	
0.0333333	0.366667	0	
0.0333333	0.4	0	
0.0333333	0.433333	0	
0.0333333	0.466667	0	
0.0333333	0.5	0	
0.0333333	0.533333	0	
0.0333333	0.566667	0	
0.0333333	0.6	0	
0.0333333	0.633333	0	
0.0333333	0.666667	0	
0.0333333	0.7	0	
0.0333333	0.733333	0	
0.0333333	0.766667	0	
0.0333333	0.8	0	
0.0333333	0.833333	0	
0.0333333	0.866667	0	
0.0333333	0.9	0	
0.0333333	0.933333	0	
0.0333333	0.966667	0	
0.0333333	1	0	
0.0666667	0	0	
0.0666667	0.0333333	0	
0.0666667	0.0666667	0	
0.0666667	0.1	0	
0.0666667	0.133333	0	
0.0666667	0.166667	0	
0.0666667	0.2	0	
0.0666667	0.233333	0	
0.0666667	0.266667	0	
0.0666667	0.3	0	
0.0666667	0.333333	0	
0.0666667	0.366667	0	
0.0666667	0.4	0	
0.0666667	0.433333	0	
0.0666667	0.466667	0	
0.0666667	0.5	0	
0.0666667	0.533333	0	
0.0666667	0.566667	0	
0.0666667	0.6	0	
0.0666667	0.633333	0	
0.0666667	0.666667	0	
0.0666667	0.7	0	
0.0666667	0.733333	0	
0.0666667	0.766667	0	
0.0666667	0.8	0	
0.0666667	0.833333	0	
0.0666667	0.866667	0	
0.0666667	0.9	0	
0.0666667	0.933333	0	
0.0666667	0.966667	0	
0.0666667	1	0	
0.1	0	0	
0.1	0.0333333	0	
0.1	0.0666667	0	
0.1	0.1	0	
0.1	0.133333	0	
0.1	0.166667	0	
0.1	0.2	0	
0.1	0.233333	0	
0.1	0.266667	0	
0.1	0.3	0	
0.1	0.333333	0	
0.1	0.366667	0	
0.1	0.4	0	
0.1	0.433333	0	
0.1	0.466667	0	
0.1	0.5	0	
0.1	0.533333	0	
0.1	0.566667	0	
0.1	0.6	0	
0.1	0.633333	0	
0.1	0.666667	0	
0.1	0.7	0	
0.1	0.733333	0	
0.1	0.766667	0	
0.1	0.8	0	
0.1	0.833333	0	
0.1	0.866667	0	
0.1	0.9	0	
0.1	0.933333	0	
0.1	0.966667	0	
0.1	1	0	
0.133333	0	0	
0.133333	0.0333333	0	
0.133333	0.0666667	0	
0.133333	0.1	0	
0.133333	0.133333	0	
0.133333	0.166667	0	
0.133333	0.2	0	
0.133333	0.233333	0	
0.133333	0.266667	0	
0.133333	0.3	0	
0.133333	0.333333	0	
0.133333	0.366667	0	
0.133333	0.4	0	
0.133333	0.433333	0	
0.133333	0.466667	0	
0.133333	0.5	0	
0.133333	0.533333	0	
0.133333	0.566667	0	
0.133333	0.6	0	
0.133333	0.633333	0	
0.133333	0.666667	0	
0.133333	0.7	0	
0.133333	0.733333	0	
0.133333	0.766667	0	
0.133333	0.8	0	
0.133333	0.833333	0	
0.133333	0.866667	0	
0.133333	0.9	0	
0.133333	0.933333	0	
0.133333	0.966667	0	
0.133333	1	0	
0.166667	0	0	
0.166667	0.0333333	0	
0.166667	0.0666667	0	
0.166667	0.1	0	
0.166667	0.133333	0	
0.166667	0.166667	0	
0.166667	0.2	0	
0.166667	0.233333	0	
0.166667	0.266667	0	
0.166667	0.3	0	
0.166667	0.333333	0	
0.166667	0.366667	0	
0.166667	0.4	0	
0.166667	0.433333	0	
0.166667	0.466667	0	
0.166667	0.5	0	
0.166667	0.533333	0	
0.166667	0.566667	0	
0.166667	0.6	0	
0.166667	0.633333	0	
0.166667	0.666667	0	
0.166667	0.7	0	
0.166667	0.733333	0	
0.166667	0.766667	0	
0.166667	0.8	0	
0.166667	0.833333	0	
0.166667	0.866667	0	
0.166667	0.9	0	
0.166667	0.933333	0	
0.166667	0.966667	0	
0.166667	1	0	
0.2	0	0	
0.2	0.0333333	0	
0.2	0.0666667	0	
0.2	0.1	0	
0.2	0.133333	0	
0.2	0.166667	0	
0.2	0.2	0	
0.2	0.233333	0	
0.2	0.266667	0	
0.2	0.3	0	
0.2	0.333333	0	
0.2	0.366667	0	
0.2	0.4	0	
0.2	0.433333	0	
0.2	0.466667	0	
0.2	0.5	0	
0.2	0.533333	0	
0.2	0.566667	0	
0.2	0.6	0	
0.2	0.633333	0	
0.2	0.666667	0	
0.2	0.7	0	
0.2	0.733333	0	
0.2	0.766667	0	
0.2	0.8	0	
0.2	0.833333	0	
0.2	0.866667	0	
0.2	0.9	0	
0.2	0.933333	0	
0.2	0.966667	0	
0.2	1	0	
0.233333	0	0	
0.233333	0.0333333	0	
0.233333	0.0666667	0	
0.233333	0.1	0	
0.233333	0.133333	0	
0.233333	0.166667	0	
0.233333	0.2	0	
0.233333	0.233333	0	
0.233333	0.266667	0	
0.233333	0.3	0	
0.233333	0.333333	0	
0.233333	0.366667	0	
0.233333	0.4	0	
0.233333	0.433333	0	
0.233333	0.466667	0	
0.233333	0.5	0	
0.233333	0.533333	0	
0.233333	0.566667	0	
0.233333	0.6	0	
0.233333	0.633333	0	
0.233333	0.666667	0	
0.233333	0.7	0	
0.233333	0.733333	0	
0.233333	0.766667	0	
0.233333	0.8	0	
0.233333	0.833333	0	
0.233333	0.866667	0	
0.233333	0.9	0	
0.233333	0.933333	0	
0.233333	0.966667	0	
0.233333	1	0	
0.266667	0	0	
0.266667	0.0333333	0	
0.266667	0.0666667	0	
0.266667	0.1	0	
0.266667	0.133333	0	
0.266667	0.166667	0	
0.266667	0.2	0	
0.266667	0.233333	0	
0.266667	0.266667	0	
0.266667	0.3	0	
0.266667	0.333333	0	
0.266667	0.366667	0	
0.266667	0.4	0	
0.266667	0.433333	0	
0.266667	0.466667	0	
0.266667	0.5	0	
0.266667	0.533333	0	
0.266667	0.566667	0	
0.266667	0.6	0	
0.266667	0.633333	0	
0.266667	0.666667	0	
0.266667	0.7	0	
0.266667	0.733333	0	
0.266667	0.766667	0	
0.266667	0.8	0	
0.266667	0.833333	0	
0.266667	0.866667	0	
0.266667	0.9	0	
0.266667	0.933333	0	
0.266667	0.966667	0	
0.266667	1	0	
0.3	0	0	
0.3	0.0333333	0	
0.3	0.0666667	0	
0.3	0.1	0	
0.3	0.133333	0	
0.3	0.166667	0	
0.3	0.2	0	
0.3	0.233333	0	
0.3	0.266667	0	
0.3	0.3	0	
0.3	0.333333	0	
0.3	0.366667	0	
0.3	0.4	0	
0.3	0.433333	0	
0.3	0.466667	0	
0.3	0.5	0	
0.3	0.533333	0	
0.3	0.566667	0	
0.3	0.6	0	
0.3	0.633333	0	
0.3	0.666667	0	
0.3	0.7	0	
0.3	0.733333	0	
0.3	0.766667	0	
0.3	0.8	0	
0.3	0.833333	0	
0.3	0.866667	0	
0.3	0.9	0	
0.3	0.933333	0	
0.3	0.966667	0	
0.3	1	0	
0.333333	0	0	
0.333333	0.0333333	0	
0.333333	0.0666667	0	
0.333333	0.1	0	
0.333333	0.133333	0	
0.333333	0.166667	0	
0.333333	0.2	0	
0.333333	0.233333	0	
0.333333	0.266667	0	
0.333333	0.3	0	
0.333333	0.333333	0	
0.333333	0.366667	0	
0.333333	0.4	0	
0.333333	0.433333	0	
0.333333	0.466667	0	
0.333333	0.5	0	
0.333333	0.533333	0	
0.333333	0.566667	0	
0.333333	0.6	0	
0.333333	0.633333	0	
0.333333	0.666667	0	
0.333333	0.7	0	
0.333333	0.733333	0	
0.333333	0.766667	0	
0.333333	0.8	0	
0.333333	0.833333	0	
0.333333	0.866667	0	
0.333333	0.9	0	
0.333333	0.933333	0	
0.333333	0.966667	0	
0.333333	1	0	
0.366667	0	0	
0.366667	0.0333333	0	
0.366667	0.0666667	0	
0.366667	0.1	0	
0.366667	0.133333	0	
0.366667	0.166667	0	
0.366667	0.2	0	
0.366667	0.233333	0	
0.366667	0.266667	0	
0.366667	0.3	0	
0.366667	0.333333	0	
0.366667	0.366667	0	
0.366667	0.4	0	
0.366667	0.433333	0	
0.366667	0.466667	0	
0.366667	0.5	0	
0.366667	0.533333	0	
0.366667	0.566667	0	
0.366667	0.6	0	
0.366667	0.633333	0	
0.366667	0.666667	0	
0.366667	0.7	0	
0.366667	0.733333	0	
0.366667	0.766667	0	
0.366667	0.8	0	
0.366667	0.833333	0	
0.366667	0.866667	0	
0.366667	0.9	0	
0.366667	0.933333	0	
0.366667	0.966667	0	
0.366667	1	0	
0.4	0	0	
0.4	0.0333333	0	
0.4	0.0666667	0	
0.4	0.1	0	
0.4	0.133333	0	
0.4	0.166667	0	
0.4	0.2	0	
0.4	0.233333	0	
0.4	0.266667	0	
0.4	0.3	0	
0.4	0.333333	0	
0.4	0.366667	0	
0.4	0.4	0	
0.4	0.433333	0	
0.4	0.466667	0	
0.4	0.5	0	
0.4	0.533333	0	
0.4	0.566667	0	
0.4	0.6	0	
0.4	0.633333	0	
0.4	0.666667	0	
0.4	0.7	0	
0.4	0.733333	0	
0.4	0.766667	0	
0.4	0.8	0	
0.4	0.833333	0	
0.4	0.866667	0	
0.4	0.9	0	
0.4	0.933333	0	
0.4	0.966667	0	
0.4	1	0	
0.433333	0	0	
0.433333	0.0333333	0	
0.433333	0.0666667	0	
0.433333	0.1	0	
0.433333	0.133333	0	
0.433333	0.166667	0	
0.433333	0.2	0	
0.433333	0.233333	0	
0.433333	0.266667	0	
0.433333	0.3	0	
0.433333	0.333333	0	
0.433333	0.366667	0	
0.433333	0.4	0	
0.433333	0.433333	0	
0.433333	0.466667	0	
0.433333	0.5	0	
0.433333	0.533333	0	
0.433333	0.566667	0	
0.433333	0.6	0	
0.433333	0.633333	0	
0.433333	0.666667	0	
0.433333	0.7	0	
0.433333	0.733333	0	
0.433333	0.766667	0	
0.433333	0.8	0	
0.433333	0.833333	0	
0.433333	0.866667	0	
0.433333	0.9	0	
0.433333	0.933333	0	
0.433333	0.966667	0	
0.433333	1	0	
0.466667	0	0	
0.466667	0.0333333	0	
0.466667	0.0666667	0	
0.466667	0.1	0	
0.466667	0.133333	0	
0.466667	0.166667	0	
0.466667	0.2	0	
0.466667	0.233333	0	
0.466667	0.266667	0	
0.466667	0.3	0	
0.466667	0.333333	0	
0.466667	0.366667	0	
0.466667	0.4	0	
0.466667	0.433333	0	
0.466667	0.466667	0	
0.466667	0.5	0	
0.466667	0.533333	0	
0.466667	0.566667	0	
0.466667	0.6	0	
0.466667	0.633333	0	
0.466667	0.666667	0	
0.466667	0.7	0	
0.466667	0.733333	0	
0.466667	0.766667	0	
0.466667	0.8	0	
0.466667	0.833333	0	
0.466667	0.866667	0	
0.466667	0.9	0	
0.466667	0.933333	0	
0.466667	0.966667	0	
0.466667	1	0	
0.5	0	0	
0.5	0.0333333	0	
0.5	0.0666667	0	
0.5	0.1	0	
0.5	0.133333	0	
0.5	0.166667	0	
0.5	0.2	0	
0.5	0.233333	0	
0.5	0.266667	0	
0.5	0.3	0	
0.5	0.333333	0	
0.5	0.366667	0	
0.5	0.4	0	
0.5	0.433333	0	
0.5	0.466667	0	
0.5	0.5	0	
0.5	0.533333	0	
0.5	0.566667	0	
0.5	0.6	0	
0.5	0.633333	0	
0.5	0.666667	0	
0.5	0.7	0	
0.5	0.733333	0	
0.5	0.766667	0	
0.5	0.8	0	
0.5	0.833333	0	
0.5	0.866667	0	
0.5	0.9	0	
0.5	0.933333	0	
0.5	0.966667	0	
0.5	1	0	
0.533333	0	0	
0.533333	0.0333333	0	
0.533333	0.0666667	0	
0.533333	0.1	0	
0.533333	0.133333	0	
0.533333	0.166667	0	
0.533333	0.2	0	
0.533333	0.233333	0	
0.533333	0.266667	0	
0.533333	0.3	0	
0.533333	0.333333	0	
0.533333	0.366667	0	
0.533333	0.4	0	
0.533333	0.433333	0	
0.533333	0.466667	0	
0.533333	0.5	0	
0.533333	0.533333	0	
0.533333	0.566667	0	
0.533333	0.6	0	
0.533333	0.633333	0	
0.533333	0.666667	0	
0.533333	0.7	0	
0.533333	0.733333	0	
0.533333	0.766667	0	
0.533333	0.8	0	
0.533333	0.833333	0	
0.533333	0.866667	0	
0.533333	0.9	0	
0.533333	0.933333	0	
0.533333	0.966667	0	
0.533333	1	0	
0.566667	0	0	
0.566667	0.0333333	0	
0.566667	0.0666667	0	
0.566667	0.1	0	
0.566667	0.133333	0	
0.566667	0.166667	0	
0.566667	0.2	0	
0.566667	0.233333	0	
0.566667	0.266667	0	
0.566667	0.3	0	
0.566667	0.333333	0	
0.566667	0.366667	0	
0.566667	0.4	0	
0.566667	0.433333	0	
0.566667	0.466667	0	
0.566667	0.5	0	
0.566667	0.533333	0	
0.566667	0.566667	0	
0.566667	0.6	0	
0.566667	0.633333	0	
0.566667	0.666667	0	
0.566667	0.7	0	
0.566667	0.733333	0	
0.566667	0.766667	0	
0.566667	0.8	0	
0.566667	0.833333	0	
0.566667	0.866667	0	
0.566667	0.9	0	
0.566667	0.933333	0	
0.566667	0.966667	0	
0.566667	1	0	
0.6	0	0	
0.6	0.0333333	0	
0.6	0.0666667	0	
0.6	0.1	0	
0.6	0.133333	0	
0.6	0.166667	0	
0.6	0.2	0	
0.6	0.233333	0	
0.6	0.266667	0	
0.6	0.3	0	
[...]
POINT_DATA	961
VECTORS u float
0	0	0	
0	0	0	
0	0	0	
0	0	0	
0	0	0	
0	0	0	
0	0	0	
0	0	0	
0	0	0	
0	0	0	
0	0	0	
0	0	0	
0	0	0	
0	0	0	
0	0	0	
0	0	0	
0	0	0	
0	0	0	
0	0	0	
0	0	0	
0	0	0	
0	0	0	
0	0	0	
0	0	0	
0	0	0	
0	0	0	
0	0	0	
0	0	0	
0	0	0	
0	0	0	
1	0	0	
0	0	0	
1.00547e-005	-9.73722e-006	0	
-0.000179264	0.000270846	0	
-0.000388469	0.00101274	0	
-0.000584205	0.00224638	0	
-0.000762671	0.00393739	0	
-0.000925336	0.00604936	0	
-0.00107365	0.00854625	0	
-0.00120873	0.0113945	0	
-0.00133059	0.0145618	0	
-0.00143838	0.0180144	0	
-0.00153068	0.0217158	0	
-0.00160598	0.0256262	0	
-0.00166333	0.0297027	0	
-0.00170312	0.0339015	0	
-0.00172802	0.0381827	0	
-0.00174417	0.0425169	0	
-0.00176259	0.0468948	0	
-0.00180138	0.0513426	0	
-0.00188791	0.0559379	0	
-0.0020647	0.0608425	0	
-0.00239412	0.0663436	0	
-0.0029698	0.0728595	0	
-0.00394644	0.0812523	0	
-0.00551523	0.0922011	0	
-0.00810029	0.108202	0	
-0.011592	0.129858	0	
-0.0187134	0.160343	0	
-0.0390134	0.201333	0	
0.147478	0.0922265	0	
1	0	0	
0	0	0	
-0.000266916	0.000175964	0	
-0.00102668	0.00101205	0	
-0.00189274	0.00256376	0	
-0.00274047	0.00488865	0	
-0.0035298	0.00796087	0	
-0.00425721	0.0117343	0	
-0.00492472	0.0161599	0	
-0.00553445	0.0211856	0	
-0.00608545	0.026759	0	
-0.00657365	0.0328242	0	
-0.00699287	0.03932	0	
-0.00733667	0.0461792	0	
-0.00760094	0.053329	0	
-0.0077871	0.0606942	0	
-0.00790604	0.0682038	0	
-0.00798275	0.0758006	0	
-0.0080621	0.083454	0	
-0.00821599	0.0911804	0	
-0.00855349	0.0990635	0	
-0.00923269	0.107287	0	
-0.0104819	0.11617	0	
-0.0126152	0.126166	0	
-0.0160505	0.138001	0	
-0.0213132	0.152215	0	
-0.0286003	0.169618	0	
-0.0377652	0.188546	0	
-0.0420707	0.200947	0	
0.00627495	0.172164	0	
0.269209	0.0663305	0	
1	0	0	
0	0	0	
-0.000974818	0.00036484	0	
-0.00254297	0.00178433	0	
-0.00426725	0.00410667	0	
-0.00596814	0.00737726	0	
-0.00757414	0.0115673	0	
-0.00906885	0.0166286	0	
-0.01045	0.0225121	0	
-0.0117172	0.0291587	0	
-0.0128661	0.0365074	0	
-0.0138866	0.0444902	0	
-0.0147651	0.0530306	0	
-0.0154873	0.0620426	0	
-0.0160427	0.0714305	0	
-0.0164314	0.0810925	0	
-0.0166705	0.0909257	0	
-0.0168026	0.100836	0	
-0.0169058	0.110752	0	
-0.0171041	0.120637	0	
-0.0175808	0.130509	0	
-0.0185907	0.140456	0	
-0.0204712	0.150638	0	
-0.0236319	0.161246	0	
-0.028481	0.172466	0	
-0.0351589	0.183916	0	
-0.0426584	0.19454	0	
-0.0460707	0.199023	0	
-0.026385	0.186197	0	
0.0772359	0.137548	0	
0.39598	0.0404299	0	
1	0	0	
0	0	0	
-0.0020938	0.000515903	0	
-0.00469968	0.00243268	0	
-0.0074401	0.00540442	0	
-0.0101304	0.00944247	0	
-0.0126868	0.0145006	0	
-0.015083	0.0205258	0	
-0.017311	0.0274723	0	
-0.0193655	0.0352813	0	
-0.0212354	0.0438909	0	
-0.0229015	0.0532286	0	
-0.0243389	0.0632098	0	
-0.0255205	0.0737353	0	
-0.0264247	0.0846905	0	
-0.0270434	0.095947	0	
-0.0273928	0.107367	0	
-0.0275242	0.11881	0	
-0.0275365	0.130143	0	
-0.0275875	0.141249	0	
-0.0279044	0.152035	0	
-0.0287859	0.16243	0	
-0.0305862	0.17236	0	
-0.0336409	0.181659	0	
-0.0380571	0.189949	0	
-0.0431316	0.196062	0	
-0.0458115	0.197688	0	
-0.0367394	0.189119	0	
0.00972513	0.161283	0	
0.149841	0.106381	0	
0.470579	0.0288814	0	
1	0	0	
0	0	0	
-0.00352769	0.000623674	0	
-0.00736615	0.00290786	0	
-0.0112415	0.00636679	0	
-0.0150055	0.0109732	0	
-0.0185858	0.0166565	0	
-0.0219566	0.0233558	0	
-0.0251075	0.0310288	0	
-0.0280277	0.0396204	0	
-0.0306974	0.0490734	0	
-0.0330848	0.0593165	0	
-0.0351483	0.0702622	0	
-0.0368425	0.0818022	0	
-0.0381263	0.0938047	0	
-0.0389744	0.106115	0	
-0.0393901	0.118555	0	
-0.0394188	0.130932	0	
-0.0391613	0.143041	0	
-0.0387831	0.154671	0	
-0.038518	0.165601	0	
-0.0386526	0.175592	0	
-0.0394738	0.184343	0	
-0.0411243	0.191385	0	
-0.0432521	0.195941	0	
-0.0441898	0.196453	0	
-0.0390345	0.190314	0	
-0.0156385	0.172717	0	
0.0529387	0.138031	0	
0.215888	0.0844136	0	
0.531599	0.0216204	0	
1	0	0	
0	0	0	
-0.00517815	0.000691482	0	
-0.0103896	0.00321189	0	
-0.0154806	0.0069864	0	
-0.0203652	0.0119565	0	
-0.0250029	0.0180299	0	
-0.029381	0.0251384	0	
-0.0334925	0.0332435	0	
-0.0373231	0.0422972	0	
-0.0408425	0.0522507	0	
-0.0440029	0.0630386	0	
-0.0467409	0.0745747	0	
-0.0489846	0.0867448	0	
-0.0506638	0.0994023	0	
-0.0517242	0.112365	0	
-0.052142	0.125415	0	
-0.05194	0.138303	0	
-0.0512002	0.150748	0	
-0.0500711	0.162444	0	
-0.0487609	0.17305	0	
-0.0475042	0.182179	0	
-0.0464722	0.189353	0	
-0.0455668	0.193906	0	
-0.0439659	0.194866	0	
-0.0391562	0.190609	0	
-0.0249551	0.178794	0	
0.0121052	0.155828	0	
0.0980089	0.118717	0	
0.273328	0.0691067	0	
0.578036	0.0169896	0	
1	0	0	
0	0	0	
-0.00695304	0.000724134	0	
-0.0136214	0.00335928	0	
-0.0199734	0.00728369	0	
-0.0259989	0.0124184	0	
-0.0317037	0.0186573	0	
-0.0370993	0.0259294	0	
-0.042189	0.0342026	0	
-0.0469575	0.0434398	0	
-0.051364	0.0536041	0	
-0.0553409	0.0646409	0	
-0.0587969	0.0764693	0	
-0.0616248	0.0889731	0	
-0.0637145	0.101993	0	
-0.064969	0.115321	0	
-0.0653223	0.128699	0	
-0.0647575	0.141822	0	
-0.0633203	0.154336	0	
-0.0611224	0.165844	0	
-0.0583274	0.175904	0	
-0.0550992	0.184013	0	
-0.0514836	0.189573	0	
-0.0471541	0.191821	0	
-0.0408937	0.189739	0	
-0.0295731	0.181835	0	
-0.00625496	0.166203	0	
0.0428169	0.140387	0	
0.141637	0.103182	0	
0.323505	0.0577973	0	
0.615497	0.0138518	0	
1	0	0	
0	0	0	
-0.00877089	0.000726389	0	
-0.016921	0.00336684	0	
-0.0245384	0.0072864	0	
-0.0316958	0.0123964	0	
-0.0384548	0.0185871	0	
-0.0448601	0.0257917	0	
-0.0509316	0.0339891	0	
-0.0566559	0.0431577	0	
-0.0619816	0.0532774	0	
-0.066818	0.0643088	0	
-0.0710393	0.0761815	0	
-0.0744939	0.0887814	0	
-0.0770193	0.10194	0	
-0.0784617	0.115428	0	
-0.0786973	0.128949	0	
-0.0776537	0.142143	0	
-0.075325	0.15459	0	
-0.071774	0.165814	0	
-0.0671112	0.175285	0	
-0.0614301	0.182416	0	
-0.0546661	0.186541	0	
-0.0463099	0.186866	0	
-0.0348553	0.182418	0	
-0.0167775	0.171913	0	
0.0152052	0.153903	0	
0.0745617	0.126827	0	
0.182952	0.090681	0	
0.367623	0.0493921	0	
0.646849	0.0115861	0	
1	0	0	
0	0	0	
-0.0105597	0.000701584	0	
-0.0201604	0.00324772	0	
-0.0290071	0.00701798	0	
-0.0372589	0.0119236	0	
-0.0450394	0.0178615	0	
-0.0524331	0.0247774	0	
-0.0594812	0.0326667	0	
-0.0661754	0.0415287	0	
-0.0724536	0.0513657	0	
-0.078199	0.0621589	0	
-0.0832447	0.0738541	0	
-0.0873848	0.0863451	0	
-0.090392	0.0994603	0	
-0.0920405	0.112952	0	
-0.0921331	0.126491	0	
-0.0905269	0.13967	0	
-0.0871522	0.152006	0	
-0.0820161	0.162953	0	
-0.0751766	0.17191	0	
-0.0666694	0.178231	0	
-0.0563488	0.181212	0	
-0.0435811	0.180069	0	
-0.0266767	0.173916	0	
-0.00189954	0.16169	0	
0.0380889	0.142352	0	
0.106137	0.115028	0	
0.22158	0.0804752	0	
0.406666	0.042881	0	
0.673391	0.00990894	0	
1	0	0	
0	0	0	
-0.0122537	0.000651647	0	
-0.02322	0.00301035	0	
-0.0332193	0.00649466	0	
-0.0424983	0.0110239	0	
-0.0512466	0.0165116	0	
-0.0595927	0.0229233	0	
-0.0676039	0.0302773	0	
-0.0752791	0.0385993	0	
-0.0825458	0.0479193	0	
-0.0892582	0.0582456	0	
-0.0952025	0.0695466	0	
-0.100109	0.0817319	0	
-0.103672	0.0946335	0	
-0.105579	0.107994	0	
-0.105542	0.121458	0	
-0.103335	0.134575	0	
-0.0988131	0.146808	0	
-0.0919237	0.15755	0	
-0.0826788	0.166141	0	
-0.0710741	0.171888	0	
-0.0569185	0.174069	0	
-0.0395122	0.171928	0	
-0.0170758	0.164675	0	
0.0141936	0.151454	0	
0.0614959	0.131565	0	
0.136886	0.104646	0	
0.2575	0.0719486	0	
0.441524	0.0376713	0	
0.696387	0.00859699	0	
1	0	0	
0	0	0	
-0.0137906	0.000577464	0	
-0.0259867	0.00265956	0	
-0.0370219	0.0057271	0	
-0.0472311	0.0097145	0	
-0.0568713	0.0145601	0	
-0.0661185	0.0202563	0	
-0.0750686	0.0268489	0	
-0.0837307	0.0343952	0	
-0.0920225	0.0429581	0	
-0.0997676	0.052579	0	
-0.1067	0.0632573	0	
-0.112477	0.0749264	0	
-0.116702	0.0874328	0	
-0.11896	0.100518	0	
-0.118859	0.113812	0	
-0.116069	0.12683	0	
-0.110362	0.13899	0	
-0.101624	0.14963	0	
-0.089828	0.158038	0	
-0.0749494	0.163484	0	
-0.056787	0.165232	0	
-0.0346283	0.162557	0	
-0.00668302	0.154758	0	
0.0308084	0.141157	0	
0.0847739	0.121324	0	
0.166393	0.0952809	0	
0.290785	0.0645852	0	
0.472792	0.0333311	0	
0.716492	0.00752264	0	
1	0	0	
0	0	0	
-0.0151102	0.000479492	0	
-0.0283516	0.00219897	0	
-0.0402683	0.00472466	0	
-0.051281	0.00801198	0	
-0.061714	0.0120306	0	
-0.0717922	0.0168047	0	
-0.0816428	0.0224105	0	
-0.0912875	0.0289403	0	
-0.100636	0.0364939	0	
-0.109482	0.0451521	0	
-0.117503	0.0549529	0	
-0.124276	0.0658647	0	
-0.129304	0.0777602	0	
-0.132052	0.0903954	0	
-0.132005	0.103396	0	
-0.128717	0.11626	0	
-0.121865	0.128366	0	
-0.111265	0.139008	0	
-0.0968592	0.147428	0	
-0.0786215	0.152857	0	
-0.0563716	0.154548	0	
-0.0294314	0.151797	0	
0.00393561	0.143974	0	
0.0473607	0.130545	0	
0.107409	0.11129	0	
0.194354	0.0865095	0	
0.321487	0.0579472	0	
0.500897	0.0295312	0	
0.734174	0.00659265	0	
1	0	0	
0	0	0	
-0.0161541	0.000358502	0	
-0.0302116	0.00163394	0	
-0.0428199	0.00350105	0	
-0.0544806	0.00594086	0	
-0.065583	0.00895886	0	
-0.0764001	0.0126128	0	
-0.0870924	0.0170102	0	
-0.0976977	0.0222791	0	
-0.108121	0.0285584	0	
-0.118128	0.0359724	0	
-0.127341	0.044606	0	
-0.135253	0.054474	0	
-0.141253	0.065491	0	
-0.144676	0.0774446	0	
-0.144866	0.0899771	0	
-0.141243	0.102582	0	
-0.133369	0.11462	0	
-0.120989	0.125346	0	
-0.104011	0.133962	0	
-0.082423	0.139659	0	
-0.0560912	0.14167	0	
-0.0244113	0.139297	0	
0.0142465	0.131961	0	
0.0633186	0.119232	0	
0.128945	0.101047	0	
0.220491	0.0779053	0	
0.349601	0.0516506	0	
0.526083	0.0260139	0	
0.749702	0.00573493	0	
1	0	0	
0	0	0	
-0.0168676	0.000216309	0	
-0.0314718	0.000974544	0	
-0.0445508	0.00207995	0	
-0.0566777	0.00354233	0	
-0.0683005	0.0054045	0	
-0.0797387	0.007757	0	
-0.0911874	0.0107357	0	
-0.102704	0.0145018	0	
-0.114196	0.0192323	0	
-0.125405	0.0250975	0	
-0.135902	0.0322354	0	
-0.145097	0.0407195	0	
-0.152262	0.0505237	0	
-0.156589	0.0614893	0	
-0.157264	0.0732996	0	
-0.153551	0.0854701	0	
-0.144883	0.09736	0	
-0.130911	0.108205	0	
-0.111509	0.117168	0	
-0.0866827	0.123402	0	
-0.0563653	0.126104	0	
-0.020057	0.124569	0	
0.0237213	0.118236	0	
0.0781588	0.106742	0	
0.148925	0.0901319	0	
0.244492	0.06904	0	
0.375021	0.045344	0	
0.548432	0.022559	0	
0.763189	0.00489223	0	
1	0	0	
0	0	0	
-0.0172028	5.64051e-005	0	
-0.0320517	0.000238153	0	
-0.0453552	0.000499974	0	
-0.0577429	0.000881627	0	
-0.0697122	0.00146178	0	
-0.0816246	0.00235927	0	
-0.0937102	0.00373162	0	
-0.106051	0.00576695	0	
-0.118565	0.00867516	0	
-0.13098	0.0126709	0	
-0.142826	0.0179494	0	
-0.153435	0.0246534	0	
-0.161966	0.0328351	0	
-0.16746	0.0424153	0	
-0.168931	0.0531494	0	
-0.165466	0.0646078	0	
-0.15634	0.0761788	0	
-0.141092	0.0870984	0	
-0.119543	0.0965051	0	
-0.0917128	0.103509	0	
-0.057611	0.107262	0	
-0.0168655	0.107024	0	
0.0318169	0.102225	0	
0.0913353	0.0925324	0	
0.166856	0.0780459	0	
0.265979	0.0594818	0	
0.397531	0.0386971	0	
0.567877	0.0189717	0	
0.774626	0.00401487	0	
1	0	0	
0	0	0	
-0.0171237	-0.000115604	0	
-0.0318927	-0.00054888	0	
-0.0451565	-0.0011822	0	
-0.057581	-0.00194706	0	
-0.069699	-0.00273379	0	
-0.0819072	-0.00340326	0	
-0.09447	-0.00378672	0	
-0.1075	-0.00368001	0	
-0.120934	-0.00285007	0	
-0.134502	-0.00104443	0	
-0.147711	0.00198824	0	
-0.159829	0.00646761	0	
-0.169912	0.0125412	0	
-0.176853	0.0202378	0	
-0.179484	0.0294223	0	
-0.176695	0.039762	0	
-0.167573	0.0507157	0	
-0.151509	0.0615539	0	
-0.128243	0.07141	0	
-0.0977917	0.079356	0	
-0.0602354	0.0844875	0	
-0.0153438	0.0860043	0	
0.0379624	0.0832928	0	
0.102257	0.0760078	0	
0.182179	0.0642594	0	
0.284478	0.048792	0	
0.416787	0.0313903	0	
0.584204	0.0150728	0	
0.783891	0.00305878	0	
1	0	0	
0	0	0	
-0.0166109	-0.000291847	0	
-0.0309659	-0.00135073	0	
-0.0439182	-0.00289107	0	
-0.056143	-0.00481958	0	
-0.068191	-0.00700358	0	
-0.0804847	-0.00929492	0	
-0.0933206	-0.0115273	0	
-0.106846	-0.0134956	0	
-0.12103	-0.0149585	0	
-0.135624	-0.0156387	0	
-0.150131	-0.0152364	0	
-0.163785	-0.0134546	0	
-0.17556	-0.0100377	0	
-0.184217	-0.00482237	0	
-0.188406	0.00220666	0	
-0.186802	0.0108653	0	
-0.178272	0.0207384	0	
-0.162016	0.0311809	0	
-0.137645	0.0413572	0	
-0.105135	0.0503169	0	
-0.0646176	0.0570924	0	
-0.0160037	0.0608001	0	
0.0415533	0.0607455	0	
0.110272	0.0565265	0	
0.194245	0.0482116	0	
0.299402	0.0365202	0	
0.432305	0.0231082	0	
0.597055	0.0106923	0	
0.790759	0.00198357	0	
1	0	0	
0	0	0	
-0.0156671	-0.000462386	0	
-0.0292808	-0.00212311	0	
-0.0416528	-0.00453455	0	
-0.0534374	-0.00758525	0	
-0.0651817	-0.0111303	0	
-0.0773217	-0.0150261	0	
-0.0901812	-0.0191246	0	
-0.103947	-0.0232379	0	
-0.11863	-0.0271366	0	
-0.134026	-0.0305381	0	
-0.149665	-0.0331111	0	
-0.16478	-0.0344909	0	
-0.1783	-0.0343115	0	
-0.188886	-0.0322555	0	
-0.195024	-0.0281188	0	
-0.195169	-0.0218792	0	
-0.187938	-0.0137555	0	
-0.172286	-0.00423705	0	
-0.147634	0.00593164	0	
-0.113851	0.0158147	0	
-0.0710767	0.0243891	0	
-0.0193444	0.0306694	0	
0.0419535	0.0338417	0	
0.11466	0.0333969	0	
0.202305	0.0293035	0	
0.310029	0.0221952	0	
0.443453	0.0135304	0	
0.605928	0.00566403	0	
0.794909	0.000750792	0	
1	0	0	
0	0	0	
-0.0143214	-0.000615809	0	
-0.0268908	-0.00281589	0	
-0.0384302	-0.00600924	0	
-0.0495399	-0.0100753	0	
-0.0607399	-0.0148696	0	
-0.0724648	-0.020267	0	
-0.0850591	-0.0261542	0	
-0.0987484	-0.0323806	0	
-0.113599	-0.0387516	0	
-0.129468	-0.0450057	0	
-0.145946	-0.050807	0	
-0.162308	-0.0557463	0	
-0.177492	-0.0593613	0	
-0.190108	-0.0611776	0	
-0.198517	-0.0607743	0	
-0.200976	-0.0578684	0	
-0.195832	-0.0524022	0	
-0.181748	-0.0446137	0	
-0.157867	-0.0350633	0	
-0.123867	-0.0246	0	
-0.0798153	-0.0142644	0	
-0.0258165	-0.00514564	0	
0.0385117	0.00178777	0	
0.114626	0.00586329	0	
0.205489	0.00687839	0	
0.315489	0.00530547	0	
0.44943	0.00231662	0	
0.610172	-0.000183728	0	
0.795932	-0.000677766	0	
1	0	0	
0	0	0	
-0.0126314	-0.000740183	0	
-0.0238967	-0.00337724	0	
-0.0343813	-0.00720879	0	
-0.0445987	-0.0121162	0	
-0.0550183	-0.0179679	0	
-0.0660571	-0.0246709	0	
-0.0780699	-0.0321607	0	
-0.0913182	-0.0403425	0	
-0.105928	-0.0490808	0	
-0.121835	-0.0581657	0	
-0.13872	-0.0672925	0	
-0.15595	-0.0760465	0	
-0.172531	-0.0839039	0	
-0.187094	-0.0902557	0	
-0.197948	-0.0944631	0	
-0.203197	-0.0959451	0	
-0.200937	-0.0942907	0	
-0.1895	-0.0893736	0	
-0.167674	-0.0814376	0	
-0.134825	-0.0711188	0	
-0.0908238	-0.0593842	0	
-0.0357536	-0.0473881	0	
0.0305967	-0.03627	0	
0.109313	-0.0269263	0	
0.202798	-0.0198192	0	
0.314734	-0.0147392	0	
0.449245	-0.0109227	0	
0.60896	-0.00704381	0	
0.793293	-0.00234601	0	
1	0	0	
0	0	0	
-0.010683	-0.000824293	0	
-0.0204458	-0.00375885	0	
-0.0296967	-0.00803441	0	
-0.0388342	-0.0135458	0	
-0.0482558	-0.0201866	0	
-0.0583445	-0.0279052	0	
-0.0694522	-0.0366962	0	
-0.0818681	-0.0465349	0	
-0.0957755	-0.0573654	0	
-0.111197	-0.0690596	0	
-0.127928	-0.0813853	0	
-0.145468	-0.0939741	0	
-0.162955	-0.106299	0	
-0.179129	-0.117671	0	
-0.192344	-0.127274	0	
-0.200644	-0.134233	0	
-0.20194	-0.137736	0	
-0.194242	-0.137185	0	
-0.175922	-0.132342	0	
-0.145909	-0.123442	0	
-0.103715	-0.111198	0	
-0.0492371	-0.0967093	0	
0.0176851	-0.0812471	0	
0.0978346	-0.0659751	0	
0.193095	-0.0517237	0	
0.306511	-0.0386881	0	
0.441684	-0.026689	0	
0.601294	-0.0151682	0	
0.786411	-0.00430814	0	
1	0	0	
0	0	0	
-0.00858649	-0.000859008	0	
-0.0167252	-0.00392171	0	
-0.0246189	-0.0084065	0	
-0.0325311	-0.0142331	0	
-0.0407712	-0.0213291	0	
-0.0496733	-0.0296895	0	
-0.0595722	-0.0393705	0	
-0.0707707	-0.0504238	0	
-0.0834988	-0.0628863	0	
-0.0978621	-0.0767356	0	
-0.113779	-0.0918509	0	
-0.13091	-0.107967	0	
-0.148583	-0.124629	0	
-0.16573	-0.14116	0	
-0.180864	-0.156652	0	
-0.192109	-0.170008	0	
-0.197312	-0.180036	0	
-0.194251	-0.185606	0	
-0.180894	-0.185849	0	
-0.15564	-0.180355	0	
-0.117466	-0.1693	0	
-0.0658485	-0.15346	0	
-0.000452411	-0.134065	0	
0.0793781	-0.112509	0	
0.175128	-0.0900919	0	
0.289322	-0.0676051	0	
0.425212	-0.0457189	0	
0.585808	-0.0249327	0	
0.774325	-0.00666214	0	
1	0	0	
0	0	0	
-0.00647057	-0.000838565	0	
-0.0129511	-0.0038417	0	
-0.0194282	-0.00827607	0	
-0.0260228	-0.0140962	0	
-0.0329476	-0.0212687	0	
-0.0404772	-0.0298339	0	
-0.0489145	-0.0399034	0	
-0.0585581	-0.0516016	0	
-0.0696658	-0.0650585	0	
-0.0824093	-0.0803683	0	
-0.0968207	-0.0975489	0	
-0.112726	-0.116488	0	
-0.129673	-0.136881	0	
-0.146854	-0.15817	0	
-0.163053	-0.179497	0	
-0.176623	-0.199687	0	
-0.185537	-0.21729	0	
-0.187521	-0.230706	0	
-0.180264	-0.238373	0	
-0.161668	-0.239027	0	
-0.130056	-0.231949	0	
-0.0842378	-0.217143	0	
-0.0233601	-0.195372	0	
0.05346	-0.167985	0	
0.147611	-0.13672	0	
0.261347	-0.103173	0	
0.397868	-0.0692629	0	
0.560923	-0.0370215	0	
0.756358	-0.00954929	0	
1	0	0	
0	0	0	
-0.00447218	-0.000761629	0	
-0.00935246	-0.00351424	0	
-0.0144217	-0.00763464	0	
-0.0196665	-0.0131192	0	
-0.025205	-0.0199737	0	
-0.0312472	-0.0282753	0	
-0.0380516	-0.0381762	0	
-0.0458936	-0.0498577	0	
-0.0550335	-0.0635293	0	
-0.0656808	-0.0793941	0	
-0.0779525	-0.097614	0	
-0.0918199	-0.118256	0	
-0.107045	-0.141226	0	
-0.123107	-0.166189	0	
-0.139134	-0.192486	0	
-0.153845	-0.219071	0	
-0.165537	-0.244475	0	
-0.172137	-0.266847	0	
-0.171326	-0.284077	0	
-0.160722	-0.294026	0	
-0.13808	-0.294814	0	
-0.101428	-0.285149	0	
-0.049058	-0.264593	0	
0.0206761	-0.233693	0	
0.109699	-0.194109	0	
0.22061	-0.14818	0	
0.357033	-0.0995686	0	
0.523732	-0.0526843	0	
0.729703	-0.0133703	0	
1	0	0	
0	0	0	
-0.00272463	-0.00063199	0	
-0.00615085	-0.00295785	0	
-0.0098891	-0.0065219	0	
-0.0138167	-0.0113651	0	
-0.0179713	-0.0175264	0	
-0.0225004	-0.0251048	0	
-0.0276102	-0.0342708	0	
-0.0335351	-0.0452373	0	
-0.0405113	-0.0582648	0	
-0.0487519	-0.0736383	0	
-0.0584174	-0.0916413	0	
-0.0695794	-0.112512	0	
-0.0821733	-0.136383	0	
-0.0959398	-0.1632	0	
-0.110359	-0.192631	0	
-0.124582	-0.223956	0	
-0.137382	-0.255982	0	
-0.147137	-0.286977	0	
-0.151859	-0.314682	0	
-0.14928	-0.336411	0	
-0.136965	-0.349253	0	
-0.112406	-0.350382	0	
-0.0730258	-0.337428	0	
-0.0160145	-0.308886	0	
0.0619685	-0.264803	0	
0.165124	-0.207061	0	
0.298991	-0.141056	0	
0.471056	-0.074791	0	
0.694619	-0.0186368	0	
1	0	0	
0	0	0	
-0.00134538	-0.00045921	0	
-0.00353715	-0.00221794	0	
-0.00607862	-0.00503315	0	
-0.00878225	-0.00898605	0	
-0.0116307	-0.0141362	0	
-0.0147181	-0.0205844	0	
-0.018195	-0.0284933	0	
-0.0222418	-0.0380758	0	
-0.027048	-0.0496057	0	
-0.0327965	-0.0634059	0	
-0.0396471	-0.0798334	0	
-0.0477147	-0.0992493	0	
-0.057041	-0.121974	0	
-0.0675559	-0.148225	0	
-0.0790294	-0.178026	0	
-0.0910157	-0.211109	0	
-0.102796	-0.246785	0	
-0.113334	-0.283832	0	
-0.121245	-0.320387	0	
-0.124799	-0.353897	0	
-0.121938	-0.381127	0	
-0.110269	-0.398273	0	
-0.0869729	-0.401125	0	
-0.0484949	-0.385354	0	
0.010074	-0.347284	0	
0.0960974	-0.284622	0	
0.220144	-0.201129	0	
0.394553	-0.108579	0	
0.637831	-0.0276302	0	
1	0	0	
0	0	0	
-0.000415929	-0.000259805	0	
-0.00164317	-0.00137092	0	
-0.00317064	-0.00332587	0	
-0.00480455	-0.00622981	0	
-0.00650457	-0.010143	0	
-0.0083251	-0.0151471	0	
-0.0103634	-0.021371	0	
-0.0127395	-0.0289968	0	
-0.0155822	-0.038271	0	
-0.0190211	-0.0495024	0	
-0.023179	-0.0630554	0	
-0.0281622	-0.079335	0	
-0.0340468	-0.0987606	0	
-0.0408598	-0.121726	0	
-0.0485519	-0.14854	0	
-0.056964	-0.179349	0	
-0.0657878	-0.214027	0	
-0.0745254	-0.252062	0	
-0.0824522	-0.292407	0	
-0.0885879	-0.333352	0	
-0.0916704	-0.372371	0	
-0.0901022	-0.406031	0	
-0.0818318	-0.429802	0	
-0.0639561	-0.437889	0	
-0.0318531	-0.423146	0	
0.0232563	-0.375911	0	
0.119006	-0.289264	0	
0.285845	-0.167578	0	
0.567186	-0.0422677	0	
1	0	0	
0	0	0	
3.17572e-005	-5.98586e-005	0	
-0.000513207	-0.000546578	0	
-0.00124458	-0.00164553	0	
-0.00202019	-0.00345928	0	
-0.00280779	-0.00602693	0	
-0.00363498	-0.00939395	0	
-0.00455203	-0.0136388	0	
-0.00562075	-0.0188888	0	
-0.00690778	-0.0253284	0	
-0.00848153	-0.033201	0	
-0.0104099	-0.0428086	0	
-0.0127577	-0.0545062	0	
-0.0155819	-0.0686923	0	
-0.0189255	-0.0857904	0	
-0.0228072	-0.106221	0	
-0.0272076	-0.130359	0	
-0.0320519	-0.158472	0	
-0.0371906	-0.190641	0	
-0.0423791	-0.226657	0	
-0.0472596	-0.265911	0	
-0.0513491	-0.307224	0	
-0.0540018	-0.348748	0	
-0.0543999	-0.387649	0	
-0.0512744	-0.419699	0	
-0.0425742	-0.439092	0	
-0.0242215	-0.434626	0	
0.0200793	-0.387701	0	
0.136633	-0.261702	0	
0.415109	-0.0790414	0	
1	0	0	
0	0	0	
7.63177e-005	7.64987e-005	0	
-4.74982e-005	4.2448e-005	0	
-0.000219427	-0.000348422	0	
-0.000390781	-0.00116112	0	