# vtk DataFile Version 4.1
vtk output
ASCII
DATASET UNSTRUCTURED_GRID

POINTS	961	float
0	0	0	
0	0.0333333	0	
0	0.0666667	0	
0	0.1	0	
0	0.133333	0	
0	0.166667	0	
0	0.2	0	
0	0.233333	0	
0	0.266667	0	
0	0.3	0	
0	0.333333	0	
0	0.366667	0	
0	0.4	0	
0	0.433333	0	
0	0.466667	0	
0	0.5	0	
0	0.533333	0	
0	0.566667	0	
0	0.6	0	
0	0.633333	0	
0	0.666667	0	
0	0.7	0	
0	0.733333	0	
0	0.766667	0	
0	0.8	0	
0	0.833333	0	
0	0.866667	0	
0	0.9	0	
0	0.933333	0	
0	0.966667	0	
0	1	0	
0.0333333	0	0	
0.0333333	0.0333333	0	
0.0333333	0.0666667	0	
0.0333333	0.1	0	
0.0333333	0.133333	0	
0.0333333	0.166667	0	
0.0333333	0.2	0	
0.0333333	0.233333	0	
0.0333333	0.266667	0	
0.0333333	0.3	0	
0.0333333	0.333333	0	
0.0333333	0.366667	0	
0.0333333	0.4	0	
0.0333333	0.433333	0	
0.0333333	0.466667	0	
0.0333333	0.5	0	
0.0333333	0.533333	0	
0.0333333	0.566667	0	
0.0333333	0.6	0	
0.0333333	0.633333	0	
0.0333333	0.666667	0	
0.0333333	0.7	0	
0.0333333	0.733333	0	
0.0333333	0.766667	0	
0.0333333	0.8	0	
0.0333333	0.833333	0	
0.0333333	0.866667	0	
0.0333333	0.9	0	
0.0333333	0.933333	0	
0.0333333	0.966667	0	
0.0333333	1	0	
0.0666667	0	0	
0.0666667	0.0333333	0	
0.0666667	0.0666667	0	
0.0666667	0.1	0	
0.0666667	0.133333	0	
0.0666667	0.166667	0	
0.0666667	0.2	0	
0.0666667	0.233333	0	
0.0666667	0.266667	0	
0.0666667	0.3	0	
0.0666667	0.333333	0	
0.0666667	0.366667	0	
0.0666667	0.4	0	
0.0666667	0.433333	0	
0.0666667	0.466667	0	
0.0666667	0.5	0	
0.0666667	0.533333	0	
0.0666667	0.566667	0	
0.0666667	0.6	0	
0.0666667	0.633333	0	
0.0666667	0.666667	0	
0.0666667	0.7	0	
0.0666667	0.733333	0	
0.0666667	0.766667	0	
0.0666667	0.8	0	
0.0666667	0.833333	0	
0.0666667	0.866667	0	
0.0666667	0.9	0	
0.0666667	0.933333	0	
0.0666667	0.966667	0	
0.0666667	1	0	
0.1	0	0	
0.1	0.0333333	0	
0.1	0.0666667	0	
0.1	0.1	0	
0.1	0.133333	0	
0.1	0.166667	0	
0.1	0.2	0	
0.1	0.233333	0	
0.1	0.266667	0	
0.1	0.3	0	
0.1	0.333333	0	
0.1	0.366667	0	
0.1	0.4	0	
0.1	0.433333	0	
0.1	0.466667	0	
0.1	0.5	0	
0.1	0.533333	0	
0.1	0.566667	0	
0.1	0.6	0	
0.1	0.633333	0	
0.1	0.666667	0	
0.1	0.7	0	
0.1	0.733333	0	
0.1	0.766667	0	
0.1	0.8	0	
0.1	0.833333	0	
0.1	0.866667	0	
0.1	0.9	0	
0.1	0.933333	0	
0.1	0.966667	0	
0.1	1	0	
0.133333	0	0	
0.133333	0.0333333	0	
0.133333	0.0666667	0	
0.133333	0.1	0	
0.133333	0.133333	0	
0.133333	0.166667	0	
0.133333	0.2	0	
0.133333	0.233333	0	
0.133333	0.266667	0	
0.133333	0.3	0	
0.133333	0.333333	0	
0.133333	0.366667	0	
0.133333	0.4	0	
0.133333	0.433333	0	
0.133333	0.466667	0	
0.133333	0.5	0	
0.133333	0.533333	0	
0.133333	0.566667	0	
0.133333	0.6	0	
0.133333	0.633333	0	
0.133333	0.666667	0	
0.133333	0.7	0	
0.133333	0.733333	0	
0.133333	0.766667	0	
0.133333	0.8	0	
0.133333	0.833333	0	
0.133333	0.866667	0	
0.133333	0.9	0	
0.133333	0.933333	0	
0.133333	0.966667	0	
0.133333	1	0	
0.166667	0	0	
0.166667	0.0333333	0	
0.166667	0.0666667	0	
0.166667	0.1	0	
0.166667	0.133333	0	
0.166667	0.166667	0	
0.166667	0.2	0	
0.166667	0.233333	0	
0.166667	0.266667	0	
0.166667	0.3	0	
0.166667	0.333333	0	
0.166667	0.366667	0	
0.166667	0.4	0	
0.166667	0.433333	0	
0.166667	0.466667	0	
0.166667	0.5	0	
0.166667	0.533333	0	
0.166667	0.566667	0	
0.166667	0.6	0	
0.166667	0.633333	0	
0.166667	0.666667	0	
0.166667	0.7	0	
0.166667	0.733333	0	
0.166667	0.766667	0	
0.166667	0.8	0	
0.166667	0.833333	0	
0.166667	0.866667	0	
0.166667	0.9	0	
0.166667	0.933333	0	
0.166667	0.966667	0	
0.166667	1	0	
0.2	0	0	
0.2	0.0333333	0	
0.2	0.0666667	0	
0.2	0.1	0	
0.2	0.133333	0	
0.2	0.166667	0	
0.2	0.2	0	
0.2	0.233333	0	
0.2	0.266667	0	
0.2	0.3	0	
0.2	0.333333	0	
0.2	0.366667	0	
0.2	0.4	0	
0.2	0.433333	0	
0.2	0.466667	0	
0.2	0.5	0	
0.2	0.533333	0	
0.2	0.566667	0	
0.2	0.6	0	
0.2	0.633333	0	
0.2	0.666667	0	
0.2	0.7	0	
0.2	0.733333	0	
0.2	0.766667	0	
0.2	0.8	0	
0.2	0.833333	0	
0.2	0.866667	0	
0.2	0.9	0	
0.2	0.933333	0	
0.2	0.966667	0	
0.2	1	0	
0.233333	0	0	
0.233333	0.0333333	0	
0.233333	0.0666667	0	
0.233333	0.1	0	
0.233333	0.133333	0	
0.233333	0.166667	0	
0.233333	0.2	0	
0.233333	0.233333	0	
0.233333	0.266667	0	
0.233333	0.3	0	
0.233333	0.333333	0	
0.233333	0.366667	0	
0.233333	0.4	0	
0.233333	0.433333	0	
0.233333	0.466667	0	
0.233333	0.5	0	
0.233333	0.533333	0	
0.233333	0.566667	0	
0.233333	0.6	0	
0.233333	0.633333	0	
0.233333	0.666667	0	
0.233333	0.7	0	
0.233333	0.733333	0	
0.233333	0.766667	0	
0.233333	0.8	0	
0.233333	0.833333	0	
0.233333	0.866667	0	
0.233333	0.9	0	
0.233333	0.933333	0	
0.233333	0.966667	0	
0.233333	1	0	
0.266667	0	0	
0.266667	0.0333333	0	
0.266667	0.0666667	0	
0.266667	0.1	0	
0.266667	0.133333	0	
0.266667	0.166667	0	
0.266667	0.2	0	
0.266667	0.233333	0	
0.266667	0.266667	0	
0.266667	0.3	0	
0.266667	0.333333	0	
0.266667	0.366667	0	
0.266667	0.4	0	
0.266667	0.433333	0	
0.266667	0.466667	0	
0.266667	0.5	0	
0.266667	0.533333	0	
0.266667	0.566667	0	
0.266667	0.6	0	
0.266667	0.633333	0	
0.266667	0.666667	0	
0.266667	0.7	0	
0.266667	0.733333	0	
0.266667	0.766667	0	
0.266667	0.8	0	
0.266667	0.833333	0	
0.266667	0.866667	0	
0.266667	0.9	0	
0.266667	0.933333	0	
0.266667	0.966667	0	
0.266667	1	0	
0.3	0	0	
0.3	0.0333333	0	
0.3	0.0666667	0	
0.3	0.1	0	
0.3	0.133333	0	
0.3	0.166667	0	
0.3	0.2	0	
0.3	0.233333	0	
0.3	0.266667	0	
0.3	0.3	0	
0.3	0.333333	0	
0.3	0.366667	0	
0.3	0.4	0	
0.3	0.433333	0	
0.3	0.466667	0	
0.3	0.5	0	
0.3	0.533333	0	
0.3	0.566667	0	
0.3	0.6	0	
0.3	0.633333	0	
0.3	0.666667	0	
0.3	0.7	0	
0.3	0.733333	0	
0.3	0.766667	0	
0.3	0.8	0	
0.3	0.833333	0	
0.3	0.866667	0	
0.3	0.9	0	
0.3	0.933333	0	
0.3	0.966667	0	
0.3	1	0	
0.333333	0	0	
0.333333	0.0333333	0	
0.333333	0.0666667	0	
0.333333	0.1	0	
0.333333	0.133333	0	
0.333333	0.166667	0	
0.333333	0.2	0	
0.333333	0.233333	0	
0.333333	0.266667	0	
0.333333	0.3	0	
0.333333	0.333333	0	
0.333333	0.366667	0	
0.333333	0.4	0	
0.333333	0.433333	0	
0.333333	0.466667	0	
0.333333	0.5	0	
0.333333	0.533333	0	
0.333333	0.566667	0	
0.333333	0.6	0	
0.333333	0.633333	0	
0.333333	0.666667	0	
0.333333	0.7	0	
0.333333	0.733333	0	
0.333333	0.766667	0	
0.333333	0.8	0	
0.333333	0.833333	0	
0.333333	0.866667	0	
0.333333	0.9	0	
0.333333	0.933333	0	
0.333333	0.966667	0	
0.333333	1	0	
0.366667	0	0	
0.366667	0.0333333	0	
0.366667	0.0666667	0	
0.366667	0.1	0	
0.366667	0.133333	0	
0.366667	0.166667	0	
0.366667	0.2	0	
0.366667	0.233333	0	
0.366667	0.266667	0	
0.366667	0.3	0	
0.366667	0.333333	0	
0.366667	0.366667	0	
0.366667	0.4	0	
0.366667	0.433333	0	
0.366667	0.466667	0	
0.366667	0.5	0	
0.366667	0.533333	0	
0.366667	0.566667	0	
0.366667	0.6	0	
0.366667	0.633333	0	
0.366667	0.666667	0	
0.366667	0.7	0	
0.366667	0.733333	0	
0.366667	0.766667	0	
0.366667	0.8	0	
0.366667	0.833333	0	
0.366667	0.866667	0	
0.366667	0.9	0	
0.366667	0.933333	0	
0.366667	0.966667	0	
0.366667	1	0	
0.4	0	0	
0.4	0.0333333	0	
0.4	0.0666667	0	
0.4	0.1	0	
0.4	0.133333	0	
0.4	0.166667	0	
0.4	0.2	0	
0.4	0.233333	0	
0.4	0.266667	0	
0.4	0.3	0	
0.4	0.333333	0	
0.4	0.366667	0	
0.4	0.4	0	
0.4	0.433333	0	
0.4	0.466667	0	
0.4	0.5	0	
0.4	0.533333	0	
0.4	0.566667	0	
0.4	0.6	0	
0.4	0.633333	0	
0.4	0.666667	0	
0.4	0.7	0	
0.4	0.733333	0	
0.4	0.766667	0	
0.4	0.8	0	
0.4	0.833333	0	
0.4	0.866667	0	
0.4	0.9	0	
0.4	0.933333	0	
0.4	0.966667	0	
0.4	1	0	
0.433333	0	0	
0.433333	0.0333333	0	
0.433333	0.0666667	0	
0.433333	0.1	0	
0.433333	0.133333	0	
0.433333	0.166667	0	
0.433333	0.2	0	
0.433333	0.233333	0	
0.433333	0.266667	0	
0.433333	0.3	0	
0.433333	0.333333	0	
0.433333	0.366667	0	
0.433333	0.4	0	
0.433333	0.433333	0	
0.433333	0.466667	0	
0.433333	0.5	0	
0.433333	0.533333	0	
0.433333	0.566667	0	
0.433333	0.6	0	
0.433333	0.633333	0	
0.433333	0.666667	0	
0.433333	0.7	0	
0.433333	0.733333	0	
0.433333	0.766667	0	
0.433333	0.8	0	
0.433333	0.833333	0	
0.433333	0.866667	0	
0.433333	0.9	0	
0.433333	0.933333	0	
0.433333	0.966667	0	
0.433333	1	0	
0.466667	0	0	
0.466667	0.0333333	0	
0.466667	0.0666667	0	
0.466667	0.1	0	
0.466667	0.133333	0	
0.466667	0.166667	0	
0.466667	0.2	0	
0.466667	0.233333	0	
0.466667	0.266667	0	
0.466667	0.3	0	
0.466667	0.333333	0	
0.466667	0.366667	0	
0.466667	0.4	0	
0.466667	0.433333	0	
0.466667	0.466667	0	
0.466667	0.5	0	
0.466667	0.533333	0	
0.466667	0.566667	0	
0.466667	0.6	0	
0.466667	0.633333	0	
0.466667	0.666667	0	
0.466667	0.7	0	
0.466667	0.733333	0	
0.466667	0.766667	0	
0.466667	0.8	0	
0.466667	0.833333	0	
0.466667	0.866667	0	
0.466667	0.9	0	
0.466667	0.933333	0	
0.466667	0.966667	0	
0.466667	1	0	
0.5	0	0	
0.5	0.0333333	0	
0.5	0.0666667	0	
0.5	0.1	0	
0.5	0.133333	0	
0.5	0.166667	0	
0.5	0.2	0	
0.5	0.233333	0	
0.5	0.266667	0	
0.5	0.3	0	
0.5	0.333333	0	
0.5	0.366667	0	
0.5	0.4	0	
0.5	0.433333	0	
0.5	0.466667	0	
0.5	0.5	0	
0.5	0.533333	0	
0.5	0.566667	0	
0.5	0.6	0	
0.5	0.633333	0	
0.5	0.666667	0	
0.5	0.7	0	
0.5	0.733333	0	
0.5	0.766667	0	
0.5	0.8	0	
0.5	0.833333	0	
0.5	0.866667	0	
0.5	0.9	0	
0.5	0.933333	0	
0.5	0.966667	0	
0.5	1	0	
0.533333	0	0	
0.533333	0.0333333	0	
0.533333	0.0666667	0	
0.533333	0.1	0	
0.533333	0.133333	0	
0.533333	0.166667	0	
0.533333	0.2	0	
0.533333	0.233333	0	
0.533333	0.266667	0	
0.533333	0.3	0	
0.533333	0.333333	0	
0.533333	0.366667	0	
0.533333	0.4	0	
0.533333	0.433333	0	
0.533333	0.466667	0	
0.533333	0.5	0	
0.533333	0.533333	0	
0.533333	0.566667	0	
0.533333	0.6	0	
0.533333	0.633333	0	
0.533333	0.666667	0	
0.533333	0.7	0	
0.533333	0.733333	0	
0.533333	0.766667	0	
0.533333	0.8	0	
0.533333	0.833333	0	
0.533333	0.866667	0	
0.533333	0.9	0	
0.533333	0.933333	0	
0.533333	0.966667	0	
0.533333	1	0	
0.566667	0	0	
0.566667	0.0333333	0	
0.566667	0.0666667	0	
0.566667	0.1	0	
0.566667	0.133333	0	
0.566667	0.166667	0	
0.566667	0.2	0	
0.566667	0.233333	0	
0.566667	0.266667	0	
0.566667	0.3	0	
0.566667	0.333333	0	
0.566667	0.366667	0	
0.566667	0.4	0	
0.566667	0.433333	0	
0.566667	0.466667	0	
0.566667	0.5	0	
0.566667	0.533333	0	
0.566667	0.566667	0	
0.566667	0.6	0	
0.566667	0.633333	0	
0.566667	0.666667	0	
0.566667	0.7	0	
0.566667	0.733333	0	
0.566667	0.766667	0	
0.566667	0.8	0	
0.566667	0.833333	0	
0.566667	0.866667	0	
0.566667	0.9	0	
0.566667	0.933333	0	
0.566667	0.966667	0	
0.566667	1	0	
0.6	0	0	
0.6	0.0333333	0	
0.6	0.0666667	0	
0.6	0.1	0	
0.6	0.133333	0	
0.6	0.166667	0	
0.6	0.2	0	
0.6	0.233333	0	
0.6	0.266667	0	
0.6	0.3	0	
[...]
POINT_DATA	961
VECTORS u float
0	0	0	
0	0	0	
0	0	0	
0	0	0	
0	0	0	
0	0	0	
0	0	0	
0	0	0	
0	0	0	
0	0	0	
0	0	0	
0	0	0	
0	0	0	
0	0	0	
0	0	0	
0	0	0	
0	0	0	
0	0	0	
0	0	0	
0	0	0	
0	0	0	
0	0	0	
0	0	0	
0	0	0	
0	0	0	
0	0	0	
0	0	0	
0	0	0	
0	0	0	
0	0	0	
1	0	0	
0	0	0	
0.000363247	-0.00036511	0	
0.000148127	-0.00121723	0	
-0.00039822	-0.000794532	0	
-0.00121206	0.00130816	0	
-0.00216569	0.00585286	0	
-0.00315567	0.0129129	0	
-0.00403398	0.0224661	0	
-0.00466873	0.0339889	0	
-0.00495482	0.0467364	0	
-0.0048416	0.0597367	0	
-0.00433089	0.0719537	0	
-0.00348083	0.0824645	0	
-0.00237411	0.090432	0	
-0.00113082	0.0954177	0	
0.000154018	0.0970027	0	
0.00134394	0.0954623	0	
0.00239554	0.0906645	0	
0.0031595	0.0837645	0	
0.00371799	0.0743863	0	
0.00384716	0.0649579	0	
0.00388745	0.0536548	0	
0.00333401	0.0453899	0	
0.00304689	0.0343343	0	
0.00168354	0.0314597	0	
0.00116607	0.0214973	0	
-0.00253961	0.0315794	0	
-0.00281184	0.0246555	0	
-0.0227437	0.0726492	0	
0.0482848	0.0333637	0	
1	0	0	
0	0	0	
0.00130112	-0.000239488	0	
0.000291265	-0.000564966	0	
-0.0024822	0.00117165	0	
-0.00624887	0.00565434	0	
-0.0106674	0.0136316	0	
-0.0150696	0.025093	0	
-0.0189336	0.0397435	0	
-0.0216709	0.0568152	0	
-0.0229303	0.0753105	0	
-0.0225047	0.0940875	0	
-0.0204426	0.111988	0	
-0.0169259	0.127982	0	
-0.0123073	0.141139	0	
-0.00694941	0.150825	0	
-0.00132913	0.156456	0	
0.00421617	0.157923	0	
0.00916927	0.154947	0	
0.013385	0.148137	0	
0.0162798	0.137351	0	
0.0181559	0.124335	0	
0.0181794	0.108516	0	
0.0175735	0.0935386	0	
0.0144953	0.0767981	0	
0.0119568	0.0655843	0	
0.00431219	0.0519046	0	
-0.00122804	0.051634	0	
-0.0239802	0.0452919	0	
-0.0382846	0.0670365	0	
0.114497	0.0257295	0	
1	0	0	
0	0	0	
0.00132426	0.000122926	0	
-0.0011385	0.00134523	0	
-0.0066352	0.00520513	0	
-0.0137247	0.012544	0	
-0.0216968	0.0237916	0	
-0.029344	0.0387858	0	
-0.0357992	0.0569014	0	
-0.0401822	0.0771743	0	
-0.0420371	0.0984343	0	
-0.0411528	0.119517	0	
-0.0376812	0.13932	0	
-0.0319503	0.156972	0	
-0.0244723	0.171737	0	
-0.0157663	0.183184	0	
-0.00643093	0.190872	0	
0.00305042	0.19474	0	
0.0120567	0.194405	0	
0.0202131	0.190223	0	
0.026793	0.181657	0	
0.0316772	0.169966	0	
0.0339435	0.154181	0	
0.0341843	0.137594	0	
0.0309638	0.117757	0	
0.0262384	0.101819	0	
0.016311	0.0826678	0	
0.00513569	0.0744184	0	
-0.0189293	0.0581045	0	
-0.0308408	0.0563523	0	
0.163174	0.017998	0	
1	0	0	
0	0	0	
0.000426412	0.000527119	0	
-0.00442921	0.00339478	0	
-0.0135211	0.00956058	0	
-0.024771	0.0199815	0	
-0.0369501	0.0346553	0	
-0.0482279	0.0532356	0	
-0.0573393	0.0746763	0	
-0.063119	0.0977851	0	
-0.0650628	0.121166	0	
-0.0630408	0.143613	0	
-0.0574176	0.16406	0	
-0.0487664	0.181793	0	
-0.0378598	0.196288	0	
-0.0254172	0.207347	0	
-0.0122059	0.214799	0	
0.00121912	0.218754	0	
0.0141496	0.219061	0	
0.0262251	0.216011	0	
0.03657	0.20918	0	
0.0450514	0.199249	0	
0.0503174	0.1853	0	
0.0529011	0.169257	0	
0.0506025	0.149341	0	
0.0456866	0.130271	0	
0.0337708	0.107644	0	
0.0202346	0.0906742	0	
-0.00591252	0.0670422	0	
-0.0139295	0.0533498	0	
0.203795	0.015449	0	
1	0	0	
0	0	0	
-0.0016938	0.000970178	0	
-0.00988158	0.00570745	0	
-0.0232301	0.0144802	0	
-0.0389823	0.028283	0	
-0.0552975	0.0464872	0	
-0.0697423	0.0684464	0	
-0.0807202	0.0926142	0	
-0.0869505	0.117608	0	
-0.0880401	0.141892	0	
-0.0841003	0.164348	0	
-0.0758054	0.184066	0	
-0.064036	0.200594	0	
-0.0498078	0.213673	0	
-0.0340172	0.223363	0	
-0.0174987	0.229691	0	
-0.000854956	0.232897	0	
0.0152721	0.232937	0	
0.0304954	0.230118	0	
0.044092	0.224087	0	
0.0557649	0.215376	0	
0.0643737	0.203054	0	
0.069833	0.18842	0	
0.0703409	0.169575	0	
0.0667735	0.149912	0	
0.0564005	0.125524	0	
0.0425134	0.103614	0	
0.0188239	0.0745293	0	
0.0121163	0.0516068	0	
0.239253	0.0136554	0	
1	0	0	
0	0	0	
-0.00498451	0.00142149	0	
-0.0176176	0.00806072	0	
-0.0360935	0.0194814	0	
-0.0568227	0.0365602	0	
-0.0772579	0.0578714	0	
-0.0944078	0.0824079	0	
-0.106476	0.108173	0	
-0.112234	0.133727	0	
-0.111538	0.157512	0	
-0.104861	0.178613	0	
-0.0932746	0.196361	0	
-0.0780136	0.21065	0	
-0.0603377	0.221542	0	
-0.0412693	0.229363	0	
-0.0216616	0.234322	0	
-0.00208516	0.236714	0	
0.0168893	0.236515	0	
0.0349199	0.233914	0	
0.0513582	0.22856	0	
0.0659116	0.220772	0	
0.0775272	0.209747	0	
0.0860048	0.196331	0	
0.0895895	0.178826	0	
0.0887012	0.159478	0	
0.080779	0.134866	0	
0.0686139	0.110522	0	
0.0470601	0.0788619	0	
0.0421462	0.0519011	0	
0.27269	0.0130083	0	
1	0	0	
0	0	0	
-0.00958603	0.00192036	0	
-0.0277032	0.0105855	0	
-0.0518716	0.024558	0	
-0.0774964	0.0444355	0	
-0.101365	0.0678796	0	
-0.120163	0.0936409	0	
-0.132125	0.119453	0	
-0.136263	0.143979	0	
-0.132813	0.165734	0	
-0.122737	0.184086	0	
-0.107588	0.198693	0	
-0.0889723	0.209865	0	
-0.068326	0.218006	0	
-0.0466925	0.223698	0	
-0.0248076	0.227276	0	
-0.00311258	0.229059	0	
0.0180033	0.228972	0	
0.0382647	0.227074	0	
0.0571692	0.22289	0	
0.0743393	0.216522	0	
0.0889014	0.207099	0	
0.100403	0.195233	0	
0.107461	0.179312	0	
0.109882	0.161129	0	
0.105725	0.137425	0	
0.0965548	0.112836	0	
0.0784198	0.0806844	0	
0.0754364	0.0517346	0	
0.305302	0.0126074	0	
1	0	0	
0	0	0	
-0.015535	0.00242388	0	
-0.0400621	0.0130321	0	
-0.0701535	0.02906	0	
-0.100218	0.0507194	0	
-0.1266	0.0748791	0	
-0.145996	0.100331	0	
-0.156815	0.124737	0	
-0.158387	0.146928	0	
-0.151419	0.165517	0	
-0.137499	0.180221	0	
-0.118734	0.191096	0	
-0.0970714	0.198885	0	
-0.0740152	0.204277	0	
-0.0505005	0.208011	0	
-0.0270542	0.210449	0	
-0.00391301	0.211863	0	
0.0187346	0.212119	0	
0.0407403	0.211162	0	
0.0617284	0.208433	0	
0.0813222	0.203841	0	
0.0987033	0.196421	0	
0.113293	0.18652	0	
0.123801	0.17258	0	
0.129815	0.156104	0	
0.129523	0.134089	0	
0.123946	0.110648	0	
0.109188	0.0797025	0	
0.109119	0.051138	0	
0.337212	0.0123377	0	
1	0	0	
0	0	0	
-0.0228072	0.00289906	0	
-0.054286	0.0151577	0	
-0.0899064	0.0323786	0	
-0.12344	0.0544636	0	
-0.151199	0.0778408	0	
-0.170172	0.101638	0	
-0.1789	0.123513	0	
-0.17707	0.14243	0	
-0.166016	0.157143	0	
-0.148131	0.16781	0	
-0.126089	0.174933	0	
-0.102062	0.179627	0	
-0.0774442	0.182736	0	
-0.0529215	0.185004	0	
-0.0287311	0.186708	0	
-0.00488313	0.188024	0	
0.0186404	0.188746	0	
0.0418162	0.188763	0	
0.0644239	0.187487	0	
0.0861112	0.184744	0	
0.106158	0.179499	0	
0.123831	0.171913	0	
0.137913	0.160379	0	
0.147686	0.146205	0	
0.151517	0.126555	0	
0.149836	0.105236	0	
0.138731	0.0765861	0	
0.142449	0.0495512	0	
0.368478	0.0119088	0	
1	0	0	
0	0	0	
-0.0311772	0.00325228	0	
-0.0696384	0.0165147	0	
-0.109869	0.0337192	0	
-0.145776	0.0547469	0	
-0.174026	0.0760685	0	
-0.191893	0.0972583	0	
-0.197848	0.115915	0	
-0.192048	0.131095	0	
-0.176695	0.141809	0	
-0.155114	0.148717	0	
-0.130442	0.152721	0	
-0.104859	0.155138	0	
-0.0794603	0.156784	0	
-0.054585	0.158257	0	
-0.0301775	0.159673	0	
-0.00605717	0.161089	0	
0.0179379	0.162252	0	
0.0418891	0.163051	0	
0.0657026	0.16294	0	
0.0891108	0.161754	0	
0.11149	0.158479	0	
0.132058	0.153168	0	
0.149565	0.144183	0	
0.163068	0.132627	0	
0.170876	0.115794	0	
0.173058	0.0972293	0	
0.165462	0.0716778	0	
0.17395	0.0470878	0	
0.398444	0.0113351	0	
1	0	0	
0	0	0	
-0.040188	0.00340415	0	
-0.0850192	0.0167255	0	
-0.128562	0.0325749	0	
-0.165875	0.0512315	0	
-0.194073	0.0696188	0	
-0.210407	0.0876363	0	
-0.213106	0.102775	0	
-0.203063	0.114215	0	
-0.18359	0.121341	0	
-0.15894	0.125257	0	
-0.132493	0.127114	0	
-0.106193	0.128222	0	
-0.0806858	0.129216	0	
-0.0559392	0.130469	0	
-0.0316533	0.131924	0	
-0.00753047	0.133542	0	
0.0166682	0.135059	0	
0.041086	0.1364	0	
0.0657377	0.137106	0	
0.0904575	0.137084	0	
0.114757	0.135408	0	
0.13787	0.132118	0	
0.158548	0.125591	0	
0.175617	0.11676	0	
0.187298	0.103001	0	
0.193228	0.0875641	0	
0.189131	0.0655694	0	
0.203228	0.0438441	0	
0.426826	0.0105661	0	
1	0	0	
0	0	0	
-0.0491523	0.00326395	0	
-0.0991563	0.0154626	0	
-0.144684	0.0286847	0	
-0.182855	0.0439544	0	
-0.210878	0.0588833	0	
-0.225536	0.0734566	0	
-0.22482	0.0851328	0	
-0.210677	0.0932632	0	
-0.187648	0.0976156	0	
-0.160765	0.0995522	0	
-0.133388	0.100277	0	
-0.107027	0.100916	0	
-0.0818199	0.101865	0	
-0.0574059	0.103269	0	
-0.0333295	0.104943	0	
-0.00925678	0.106792	0	
0.0150588	0.108571	0	
0.0397856	0.110258	0	
0.0650112	0.111491	0	
0.0906831	0.112271	0	
0.11645	0.111803	0	
0.141639	0.110166	0	
0.165023	0.105835	0	
0.185282	0.0996068	0	
0.200491	0.0889629	0	
0.209866	0.0768166	0	
0.209157	0.0586506	0	
0.229643	0.04002	0	
0.453051	0.00966578	0	
1	0	0	
0	0	0	
-0.0572023	0.00278234	0	
-0.110746	0.0126053	0	
-0.157169	0.0221759	0	
-0.196088	0.0333551	0	
-0.22412	0.0445369	0	
-0.237226	0.0555973	0	
-0.23331	0.0641517	0	
-0.215576	0.0696784	0	
-0.189757	0.0722088	0	
-0.161464	0.0731035	0	
-0.133828	0.0734617	0	
-0.107831	0.0741498	0	
-0.0831255	0.0753511	0	
-0.0591001	0.0770462	0	
-0.0352297	0.0789903	0	
-0.0112048	0.0810718	0	
0.0131885	0.0830827	0	
0.0381164	0.0850422	0	
0.0637151	0.0866755	0	
0.0900318	0.0880606	0	
0.116851	0.0885454	0	
0.143623	0.0882757	0	
0.169192	0.0858826	0	
0.19216	0.0820703	0	
0.210493	0.0744689	0	
0.222935	0.0656342	0	
0.225593	0.0513655	0	
0.253111	0.0358475	0	
0.476925	0.00866407	0	
1	0	0	
0	0	0	
-0.0634025	0.00194355	0	
-0.118664	0.0082278	0	
-0.1653	0.0134368	0	
-0.20521	0.0200395	0	
-0.233693	0.0272882	0	
-0.245721	0.0348848	0	
-0.239251	0.0408194	0	
-0.218713	0.0445372	0	
-0.190904	0.0461233	0	
-0.161852	0.0466866	0	
-0.134379	0.0471383	0	
-0.108941	0.0480933	0	
-0.0847787	0.0496136	0	
-0.0611113	0.0515959	0	
-0.0374049	0.0537984	0	
-0.0134051	0.0561186	0	
0.0110504	0.0583871	0	
0.0361136	0.0606474	0	
0.0619442	0.0626864	0	
0.0886695	0.0646315	0	
0.116181	0.0659617	0	
0.14407	0.0668874	0	
0.171265	0.0662337	0	
0.196379	0.0646443	0	
0.217297	0.0599565	0	
0.232329	0.0543731	0	
0.238349	0.0439623	0	
0.273456	0.0314815	0	
0.498171	0.00761647	0	
1	0	0	
0	0	0	
-0.0668822	0.00079438	0	
-0.122067	0.00263451	0	
-0.168612	0.00308461	0	
-0.209913	0.00474924	0	
-0.239487	0.00787988	0	
-0.251286	0.012074	0	
-0.243279	0.0158826	0	
-0.22086	0.018502	0	
-0.191737	0.019834	0	
-0.16231	0.0205255	0	
-0.135162	0.0212728	0	
-0.110308	0.0225062	0	
-0.0866618	0.024275	0	
-0.0633249	0.0264708	0	
-0.0397802	0.0288989	0	
-0.0158306	0.0314758	0	
0.00863615	0.0340656	0	
0.033755	0.0367172	0	
0.0596948	0.0392589	0	
0.0866349	0.0418384	0	
0.114547	0.0440471	0	
0.143141	0.0461425	0	
0.171447	0.0471578	0	
0.198139	0.0476875	0	
0.221073	0.0458252	0	
0.238196	0.0434234	0	
0.247661	0.0367433	0	
0.290779	0.0271393	0	
0.516769	0.00656472	0	
1	0	0	
0	0	0	
-0.0669782	-0.00056838	0	
-0.120479	-0.00368555	0	
-0.166847	-0.00812113	0	
-0.209909	-0.011684	0	
-0.241374	-0.0129309	0	
-0.254165	-0.0121958	0	
-0.245989	-0.010201	0	
-0.222709	-0.00816114	0	
-0.192811	-0.00658127	0	
-0.163151	-0.00546025	0	
-0.136287	-0.00433913	0	
-0.111937	-0.0028946	0	
-0.0887705	-0.000988624	0	
-0.0657764	0.00133303	0	
-0.0424463	0.00395019	0	
-0.0186224	0.00680075	0	
0.00576624	0.00977436	0	
0.0308402	0.0129143	0	
0.0567632	0.0160769	0	
0.0837449	0.0194117	0	
0.111801	0.0226023	0	
0.140738	0.0259321	0	
0.169677	0.0286318	0	
0.197409	0.0312491	0	
0.221768	0.0321595	0	
0.240538	0.0328708	0	
0.253627	0.0297492	0	
0.30514	0.0228506	0	
0.532705	0.00553522	0	
1	0	0	
0	0	0	
-0.0633773	-0.00199012	0	
-0.113821	-0.0100852	0	
-0.159906	-0.0192849	0	
-0.204874	-0.0282771	0	
-0.239054	-0.0342815	0	
-0.254325	-0.037317	0	
-0.247642	-0.0371779	0	
-0.224653	-0.0354826	0	
-0.194426	-0.0333172	0	
-0.164459	-0.0315157	0	
-0.137641	-0.0299408	0	
-0.113616	-0.0283352	0	
-0.0908744	-0.0263931	0	
-0.0682659	-0.0240318	0	
-0.0452465	-0.0212701	0	
-0.0216654	-0.018145	0	
0.00252119	-0.014745	0	
0.0274212	-0.0110388	0	
0.0531862	-0.00714354	0	
0.0800332	-0.00291901	0	
0.107998	0.0014036	0	
0.13695	0.0061097	0	
0.166098	0.0106178	0	
0.194351	0.0154096	0	
0.219563	0.019161	0	
0.239585	0.0229791	0	
0.256573	0.0232441	0	
0.3167	0.0188374	0	
0.546056	0.00455851	0	
1	0	0	
0	0	0	
-0.056194	-0.00328717	0	
-0.102422	-0.0158204	0	
-0.147874	-0.0293905	0	
-0.194494	-0.0438278	0	
-0.232035	-0.0550629	0	
-0.251371	-0.0625212	0	
-0.248152	-0.0647956	0	
-0.226925	-0.0636242	0	
-0.196948	-0.0607219	0	
-0.166545	-0.0579569	0	
-0.13941	-0.0557285	0	
-0.11544	-0.0539037	0	
-0.0930543	-0.0519755	0	
-0.0709096	-0.0496584	0	
-0.0483517	-0.0468238	0	
-0.0251839	-0.0434623	0	
-0.00137479	-0.0396369	0	
0.0231753	-0.0353257	0	
0.0485909	-0.0306193	0	
0.0750892	-0.0253859	0	
0.102695	-0.0197845	0	
0.131332	-0.0135372	0	
0.160276	-0.00707648	0	
0.188584	1.93331e-005	0	
0.214132	0.0066756	0	
0.235259	0.0135701	0	
0.256581	0.0169904	0	
0.325648	0.0149203	0	
0.557014	0.00364285	0	
1	0	0	
0	0	0	
-0.0460563	-0.0042581	0	
-0.0870647	-0.0201335	0	
-0.131141	-0.0373443	0	
-0.178598	-0.056903	0	
-0.219622	-0.0737961	0	
-0.244358	-0.0866517	0	
-0.24675	-0.0925533	0	
-0.229219	-0.0927383	0	
-0.200459	-0.0893177	0	
-0.1696	-0.0853161	0	
-0.141657	-0.0820386	0	
-0.117275	-0.0797207	0	
-0.0950246	-0.0777261	0	
-0.0733491	-0.0755027	0	
-0.0513849	-0.072689	0	
-0.0288087	-0.0691741	0	
-0.00556749	-0.0649687	0	
0.018434	-0.0600574	0	
0.0432893	-0.0544914	0	
0.0692001	-0.0481541	0	
0.096174	-0.0411175	0	
0.124164	-0.0331399	0	
0.152517	-0.0244868	0	
0.180393	-0.0148486	0	
0.205833	-0.00504763	0	
0.227955	0.00498161	0	
0.254098	0.0114398	0	
0.332064	0.0114642	0	
0.565567	0.00276477	0	
1	0	0	
0	0	0	
-0.0340087	-0.00474438	0	
-0.0689427	-0.0223743	0	
-0.110493	-0.0420854	0	
-0.157354	-0.065893	0	
-0.201137	-0.0885175	0	
-0.231922	-0.107813	0	
-0.241975	-0.119187	0	
-0.230669	-0.122492	0	
-0.204941	-0.119542	0	
-0.174205	-0.114319	0	
-0.145124	-0.109448	0	
-0.119738	-0.106029	0	
-0.0972195	-0.103602	0	
-0.075914	-0.101379	0	
-0.054672	-0.0986648	0	
-0.0329205	-0.0951253	0	
-0.0105214	-0.0906483	0	
0.0126469	-0.0851936	0	
0.0366273	-0.0787668	0	
0.0616199	-0.0712583	0	
0.0875749	-0.0626701	0	
0.114521	-0.0527876	0	
0.141806	-0.0417684	0	
0.168831	-0.0293885	0	
0.193825	-0.0164099	0	
0.217334	-0.00335971	0	
0.248946	0.00576665	0	
0.336347	0.00785084	0	
0.572187	0.00200415	0	
1	0	0	
0	0	0	
-0.0214746	-0.00464723	0	
-0.0496782	-0.0221672	0	
-0.0873016	-0.0428323	0	
-0.131591	-0.0693392	0	
-0.176313	-0.0970117	0	
-0.212493	-0.123333	0	
-0.231432	-0.142286	0	
-0.229066	-0.151519	0	
-0.209176	-0.151383	0	
-0.180206	-0.145942	0	
-0.150196	-0.13921	0	
-0.123164	-0.133787	0	
-0.0995977	-0.130051	0	
-0.0781673	-0.127314	0	
-0.0575079	-0.12455	0	
-0.0366899	-0.12106	0	
-0.0153635	-0.116445	0	
0.00669076	-0.110567	0	
0.0294927	-0.103328	0	
0.0532335	-0.0946533	0	
0.0778213	-0.0844134	0	
0.103325	-0.0724897	0	
0.129144	-0.0588195	0	
0.154868	-0.0434598	0	
0.179281	-0.0269806	0	
0.204344	-0.0108862	0	
0.241983	0.00105506	0	
0.338104	0.00482531	0	
0.576254	0.00102426	0	
1	0	0	
0	0	0	
-0.0098714	-0.00400673	0	
-0.0310461	-0.0195395	0	
-0.0633842	-0.0393268	0	
-0.10296	-0.0663123	0	
-0.145874	-0.0972303	0	
-0.185158	-0.129922	0	
-0.212549	-0.157872	0	
-0.221188	-0.176334	0	
-0.210738	-0.182983	0	
-0.186871	-0.180312	0	
-0.157711	-0.172831	0	
-0.129211	-0.164867	0	
-0.103903	-0.158507	0	
-0.0815572	-0.153985	0	
-0.0610272	-0.150364	0	
-0.0410865	-0.146617	0	
-0.0210787	-0.141871	0	
-0.000525026	-0.135692	0	
0.0206123	-0.12775	0	
0.0426035	-0.11795	0	
0.0652271	-0.106061	0	
0.0887417	-0.0920328	0	
0.112431	-0.0757175	0	
0.136566	-0.0573911	0	
0.160253	-0.0378222	0	
0.187907	-0.0191471	0	
0.232092	-0.00520245	0	
0.338499	0.000747339	0	
0.579017	0.00045105	0	
1	0	0	
0	0	0	
-0.00054825	-0.00294273	0	
-0.0148917	-0.0150054	0	
-0.040966	-0.0321114	0	
-0.0739944	-0.0570426	0	
-0.111968	-0.0883255	0	
-0.150512	-0.124904	0	
-0.183418	-0.161248	0	
-0.202841	-0.191198	0	
-0.204627	-0.209393	0	
-0.190212	-0.214965	0	
-0.165665	-0.210849	0	
-0.137607	-0.202006	0	
-0.110654	-0.192478	0	
-0.0864829	-0.184444	0	
-0.0649951	-0.178075	0	
-0.0451668	-0.172668	0	
-0.0261618	-0.167017	0	
-0.00716474	-0.16032	0	
0.0120476	-0.151707	0	
0.0319227	-0.140974	0	
0.0522288	-0.127515	0	
0.0733643	-0.11157	0	
0.0946861	-0.092564	0	
0.116994	-0.0715605	0	
0.140281	-0.0486427	0	
0.170527	-0.0275057	0	
0.221492	-0.0103075	0	
0.335093	-0.00325654	0	
0.577399	-0.00166734	0	
1	0	0	
0	0	0	
0.00581937	-0.00171697	0	
-0.00250708	-0.00943541	0	
-0.0219918	-0.0224236	0	
-0.0475166	-0.0429644	0	
-0.0780856	-0.071228	0	
-0.111648	-0.107488	0	
-0.145033	-0.148576	0	
-0.171769	-0.188941	0	
-0.185835	-0.221538	0	
-0.184491	-0.241641	0	
-0.169914	-0.248397	0	
-0.147097	-0.244833	0	
-0.121382	-0.235392	0	
-0.0962762	-0.224151	0	
-0.0734405	-0.213321	0	
-0.0528579	-0.203743	0	
-0.0341359	-0.194822	0	
-0.0163368	-0.185904	0	
0.00082328	-0.175692	0	
0.0181945	-0.163734	0	
0.0354558	-0.148887	0	
0.0536165	-0.13141	0	
0.0717413	-0.110459	0	
0.0921882	-0.0875355	0	
0.114589	-0.0628103	0	
0.14875	-0.0403914	0	
0.205791	-0.0219143	0	
0.33216	-0.0106503	0	
0.575283	-0.0018852	0	
1	0	0	
0	0	0	
0.00884486	-0.000510459	0	
0.00519788	-0.00387584	0	
-0.00807848	-0.0120621	0	
-0.0261241	-0.026758	0	
-0.0481686	-0.0491943	0	
-0.0735421	-0.0805149	0	
-0.101759	-0.120238	0	
-0.129293	-0.165322	0	
-0.150992	-0.209802	0	
-0.16202	-0.247022	0	
-0.160667	-0.272067	0	
-0.148518	-0.283754	0	
-0.129373	-0.283911	0	
-0.107078	-0.276289	0	
-0.084643	-0.264244	0	
-0.0634749	-0.25061	0	
-0.0442565	-0.236356	0	
-0.0265691	-0.222292	0	
-0.0103689	-0.207486	0	
0.00532304	-0.192196	0	
0.020258	-0.174633	0	
0.0358451	-0.155777	0	
0.0513968	-0.133224	0	
0.0700623	-0.10988	0	
0.0923464	-0.0825627	0	
0.12913	-0.0585941	0	
0.19145	-0.0337807	0	
0.318576	-0.02325	0	
0.560338	-0.00955091	0	
1	0	0	
0	0	0	
0.00917287	0.00040307	0	
0.00854101	0.000807078	0	
0.000464551	-0.00266988	0	
-0.0110969	-0.0111467	0	
-0.0252108	-0.0263375	0	
-0.041631	-0.0494158	0	
-0.0612199	-0.0816057	0	
-0.0831628	-0.122641	0	
-0.104907	-0.169861	0	
-0.122455	-0.218219	0	
-0.132432	-0.261566	0	
-0.133311	-0.295112	0	
-0.126003	-0.316351	0	
-0.112735	-0.325814	0	
-0.0962979	-0.325158	0	
-0.0786754	-0.31731	0	
-0.0615479	-0.303957	0	
-0.0451908	-0.287426	0	
-0.030361	-0.267766	0	
-0.0160683	-0.246733	0	
-0.00317835	-0.223047	0	
0.0105792	-0.199112	0	
0.023488	-0.172693	0	
0.0409431	-0.147976	0	
0.0608261	-0.121005	0	
0.100143	-0.0976688	0	
0.163516	-0.0697159	0	
0.310956	-0.0431108	0	
0.545223	-0.00832896	0	
1	0	0	
0	0	0	
0.00713713	0.00106606	0	
0.00786582	0.00400504	0	
0.00370264	0.00423606	0	
-0.00271292	0.00108197	0	
-0.0103645	-0.00719732	0	
-0.0190512	-0.021285	0	
-0.0296911	-0.0427182	0	
-0.0427262	-0.0725845	0	
-0.0576743	-0.111168	0	
-0.0727955	-0.156981	0	
-0.0857436	-0.206447	0	
-0.094295	-0.255057	0	
-0.0972996	-0.298053	0	
-0.0948628	-0.332659	0	
-0.0881937	-0.35697	0	
-0.0787118	-0.371737	0	
-0.0679952	-0.376865	0	
-0.0567612	-0.374742	0	
-0.0459811	-0.364601	0	
-0.0350897	-0.349506	0	
-0.0248033	-0.326766	0	
-0.0129761	-0.301141	0	
-0.000632383	-0.267302	0	
0.0172155	-0.234664	0	
0.0392135	-0.193529	0	
0.0785098	-0.162769	0	
0.139477	-0.11958	0	
0.261321	-0.101308	0	
0.485272	-0.0383669	0	
1	0	0	
0	0	0	
0.00432047	0.00120533	0	
0.0051731	0.00533151	0	
0.00351656	0.00788989	0	
0.000585874	0.00843014	0	
-0.00271888	0.00548104	0	
-0.00624556	-0.000992577	0	
-0.0105056	-0.0119527	0	
-0.0160288	-0.0283681	0	
-0.0230173	-0.0515023	0	
-0.0311236	-0.0821376	0	
-0.0396037	-0.119957	0	
-0.0474291	-0.163628	0	
-0.0535953	-0.210279	0	
-0.0574119	-0.257252	0	
-0.0587763	-0.301157	0	
-0.0579814	-0.340771	0	
-0.0558086	-0.373735	0	
-0.0527316	-0.40116	0	
-0.0497594	-0.420711	0	
-0.0465415	-0.435384	0	
-0.0442786	-0.44087	0	
-0.0406161	-0.44205	0	
-0.0375484	-0.430415	0	
-0.0277171	-0.413597	0	
-0.0150719	-0.376205	0	
0.0213519	-0.330684	0	
0.074845	-0.250565	0	
0.230515	-0.150331	0	
0.4216	-0.0263661	0	
1	0	0	
0	0	0	
0.00101467	0.00101399	0	
0.00115681	0.00427608	0	
0.000932264	0.006858	0	
0.000311343	0.00858034	0	
-0.000260682	0.00843955	0	
-0.000898654	0.00678996	0	
-0.00160515	0.00321306	0	
-0.00258394	-0.00264012	0	
-0.0038506	-0.0116036	0	
-0.00543683	-0.0245315	0	
-0.00719057	-0.0419806	0	
-0.00903725	-0.0644492	0	
-0.0106913	-0.0914031	0	
-0.0121355	-0.122608	0	
-0.0130576	-0.156207	0	
-0.0137414	-0.192085	0	
-0.0138468	-0.227563	0	
-0.0140829	-0.264286	0	
-0.0138156	-0.298495	0	
-0.0142569	-0.335271	0	