# vtk DataFile Version 4.1
vtk output
ASCII
DATASET UNSTRUCTURED_GRID

POINTS	915	float
0	0	0	
1	0	0	
1	1	0	
0	1	0	
0.441507	0.427889	0	
0.5	1	0	
0	0.5	0	
1	0.5	0	
0.5	0	0	
0.775226	0.553088	0	
0.595471	0.227922	0	
0.297261	0.235087	0	
0.262968	0.59015	0	
0.45994	0.288232	0	
1	0.75	0	
0.75	0	0	
0.75	1	0	
1	0.25	0	
0.25	0	0	
0	0.25	0	
0	0.75	0	
0.25	1	0	
0.553833	0.697075	0	
0.223984	0.445975	0	
0.895468	0.413736	0	
0.76595	0.759461	0	
0.660469	0.223549	0	
0.278678	0.804417	0	
0.397149	0.813797	0	
0.605761	0.404195	0	
0.134609	0.155511	0	
0.524137	0.774214	0	
0.956913	0.863577	0	
0.376269	0.689859	0	
0.329868	0.105416	0	
0.472166	0.392879	0	
0.331022	0.32993	0	
0.856495	0.754273	0	
0.115184	0.493331	0	
0.115505	0.677499	0	
0.122552	0.262286	0	
0.123701	0.877905	0	
0	0.375	0	
0.528308	0.182746	0	
0.601014	0.120875	0	
0.331381	0.850588	0	
0.84562	0.132444	0	
1	0.625	0	
1	0.875	0	
0.875	1	0	
0.875	0	0	
0.625	1	0	
1	0.375	0	
1	0.125	0	
0.125	0	0	
0	0.125	0	
0.375	0	0	
0	0.625	0	
0	0.875	0	
0.125	1	0	
0.625	0	0	
0.375	1	0	
0.246024	0.105492	0	
0.0558973	0.363649	0	
0.813301	0.328225	0	
0.931348	0.568005	0	
0.0662965	0.793844	0	
0.882612	0.200334	0	
0.754778	0.875452	0	
0.517543	0.625833	0	
0.310665	0.726953	0	
0.299617	0.495226	0	
0.785317	0.454452	0	
0.262833	0.294583	0	
0.392638	0.860183	0	
0.698541	0.617099	0	
0.665802	0.807862	0	
0.253502	0.884503	0	
0.869811	0.906193	0	
0.554777	0.491132	0	
0.91439	0.300673	0	
0.680754	0.28828	0	
0.643835	0.574635	0	
0.692844	0.0701882	0	
0.942471	0.900841	0	
0.0699719	0.103668	0	
0.240887	0.177473	0	
0.115927	0.373791	0	
0.937365	0.0682422	0	
0.428344	0.744947	0	
0.802787	0.843728	0	
0.379719	0.459383	0	
0.215403	0.490758	0	
0.635304	0.87113	0	
0.157044	0.0796483	0	
0.74606	0.681215	0	
0.438588	0.616452	0	
0.918774	0.132315	0	
0.319607	0.0616816	0	
0.958586	0.627292	0	
0.927918	0.778628	0	
0.476467	0.153399	0	
0.0570136	0.879852	0	
0.858532	0.487807	0	
0.044271	0.580948	0	
0.155687	0.731506	0	
0.345087	0.611934	0	
0.783372	0.223324	0	
0.742705	0.447042	0	
0.602357	0.317864	0	
0.42509	0.383533	0	
0.511345	0.585473	0	
0.0675544	0.836454	0	
0.541821	0.879	0	
0.526584	0.272733	0	
0.056104	0.429153	0	
0.554174	0.122389	0	
0.115134	0.723615	0	
0.0563802	0.710118	0	
0.845485	0.278725	0	
0.821701	0.653343	0	
0.355845	0.797506	0	
0.635534	0.71183	0	
0.398987	0.212216	0	
0.575365	0.655566	0	
0.724009	0.488133	0	
0.648324	0.474733	0	
0.0685868	0.224683	0	
0.764282	0.140908	0	
0.692255	0.955903	0	
0.068651	0.324991	0	
0.572047	0.0589489	0	
0.691565	0.571354	0	
0.922226	0.479354	0	
0.757898	0.916786	0	
0.251078	0.680062	0	
0.566985	0.921341	0	
0.282058	0.376889	0	
0.948915	0.191798	0	
0.0670463	0.15085	0	
0.739358	0.0601392	0	
0.427755	0.557967	0	
0.745403	0.251077	0	
0.181886	0.931358	0	
0.490151	0.6564	0	
0.922662	0.360477	0	
0.0527204	0.268307	0	
0.593242	0.188242	0	
0.442228	0.817334	0	
0.438054	0.953193	0	
0.396879	0.931544	0	
0.844219	0.577483	0	
0.31153	0.927036	0	
1	0.8125	0	
0.3125	0	0	
0	0.1875	0	
0.281681	0.176479	0	
1	0.5625	0	
0	0.4375	0	
0	0.3125	0	
0.136594	0.456589	0	
1	0.6875	0	
1	0.9375	0	
0.5625	1	0	
0.1875	0	0	
0	0.0625	0	
0	0.5625	0	
0	0.8125	0	
0.6875	0	0	
0.177876	0.769532	0	
0.3125	1	0	
1	0.3125	0	
0.8125	1	0	
0.9375	1	0	
0.788583	0.800633	0	
0.581936	0.727545	0	
0.885891	0.793473	0	
0.58836	0.816715	0	
0.0625	0	0	
1	0.0625	0	
0.9375	0	0	
0.4375	0	0	
0	0.9375	0	
0.0625	1	0	
0	0.6875	0	
0.6875	1	0	
0.5625	0	0	
1	0.4375	0	
1	0.1875	0	
0.8125	0	0	
0.1875	1	0	
0.4375	1	0	
0.73131	0.334944	0	
0.178913	0.119	0	
0.228916	0.248374	0	
0.583057	0.543176	0	
0.486075	0.254145	0	
0.454089	0.186043	0	
0.759466	0.514821	0	
0.808618	0.415535	0	
0.386236	0.569025	0	
0.629326	0.253053	0	
0.721582	0.208584	0	
0.681599	0.186077	0	
0.534574	0.419801	0	
0.161469	0.66881	0	
0.121181	0.924408	0	
0.676002	0.897463	0	
0.70824	0.711943	0	
0.59847	0.692289	0	
0.866968	0.0598884	0	
0.231226	0.719281	0	
0.481149	0.616575	0	
0.468102	0.503653	0	
0.227042	0.284401	0	
0.183622	0.20187	0	
0.222521	0.853873	0	
0.301434	0.570453	0	
0.887895	0.334647	0	
0.621436	0.941135	0	
0.611424	0.0745066	0	
0.587179	0.460813	0	
0.887787	0.863023	0	
0.821386	0.779504	0	
0.740606	0.614124	0	
0.50435	0.959388	0	
0.141227	0.119396	0	
0.355756	0.268412	0	
0.611394	0.59516	0	
0.36538	0.0736491	0	
0.506628	0.454114	0	
0.614331	0.748841	0	
0.389276	0.61138	0	
0.478275	0.850368	0	
0.635827	0.18575	0	
0.355093	0.73428	0	
0.689237	0.74892	0	
0.263269	0.931279	0	
0.779144	0.713263	0	
0.903652	0.604826	0	
0.804494	0.184449	0	
0.96385	0.233061	0	
0.843995	0.445329	0	
0.893548	0.516022	0	
0.242423	0.0468273	0	
0.244772	0.35431	0	
0.434289	0.133646	0	
0.403451	0.975225	0	
0.128052	0.576288	0	
0.516154	0.384428	0	
0.519665	0.226503	0	
0.671602	0.439991	0	
0.31916	0.890236	0	
0.353035	0.928234	0	
0.940515	0.403657	0	
0.853973	0.403842	0	
0.924464	0.736308	0	
0.811104	0.743258	0	
0.804004	0.51863	0	
0.505372	0.731978	0	
0.520552	0.83566	0	
0.0902777	0.0640952	0	
0.0493537	0.0650158	0	
0.283468	0.761838	0	
0.109282	0.835397	0	
0.710199	0.114211	0	
0.423231	0.483471	0	
0.513874	0.104311	0	
0.304049	0.298388	0	
0.112269	0.220286	0	
0.28816	0.116561	0	
0.626789	0.219117	0	
0.687264	0.379729	0	
0.646487	0.358942	0	
0.661827	0.511036	0	
0.59532	0.503307	0	
0.260249	0.215438	0	
0.903863	0.695173	0	
0.909224	0.931009	0	
0.794572	0.886338	0	
0.0953997	0.411073	0	
0.0569689	0.470803	0	
0.184915	0.525362	0	
0.112081	0.330408	0	
0.464491	0.577721	0	
0.457586	0.917569	0	
0.423231	0.0625042	0	
0.401683	0.42085	0	
0.319452	0.196511	0	
0.514294	0.312202	0	
0.424922	0.699892	0	
0.456229	0.775719	0	
0.424	0.2396	0	
0.419378	0.175069	0	
0.171986	0.481259	0	
0.295064	0.453956	0	
0.668861	0.108281	0	
0.791486	0.104707	0	
0.911318	0.0365852	0	
0.854579	0.23299	0	
0.93851	0.523304	0	
0.28477	0.334375	0	
0.176051	0.387286	0	
0.705696	0.788271	0	
0.952834	0.936636	0	
0.95503	0.0336189	0	
0.0765256	0.935061	0	
0.356846	0.888058	0	
0.422393	0.895871	0	
0.782767	0.632149	0	
0.847142	0.532226	0	
0.658894	0.6384	0	
0.666327	0.602098	0	
0.544576	0.736047	0	
0.132259	0.764916	0	
0.0323352	0.645361	0	
0.588225	0.863293	0	
0.191777	0.885352	0	
0.625209	0.441617	0	
0.607568	0.720126	0	
0.627449	0.810631	0	
0.719981	0.831722	0	
0.259693	0.477769	0	
0.759317	0.478685	0	
0.490251	0.195125	0	
0.472359	0.107976	0	
0.532083	0.0477495	0	
0.804038	0.288472	0	
0.455835	0.327011	0	
0.471077	0.700548	0	
0.58886	0.273581	0	
0.492834	0.0673976	0	
0.24702	0.779409	0	
0.246257	0.403176	0	
0.198141	0.343147	0	
0.886044	0.562607	0	
0.091357	0.290596	0	
0.906491	0.894829	0	
0.301093	0.614811	0	
0.20424	0.685558	0	
0.88966	0.261446	0	
0.397879	0.523603	0	
0.696601	0.246181	0	
0.722368	0.158456	0	
0.896663	0.75865	0	
0.179619	0.842173	0	
0.386981	0.14332	0	
0.799554	0.0601433	0	
0.83249	0.0324963	0	
0.338085	0.235023	0	
0.747646	0.101733	0	
0.563356	0.383502	0	
0.104823	0.130682	0	
0.885852	0.454235	0	
0.41882	0.308345	0	
0.0832073	0.523537	0	
0.585673	0.961055	0	
0.501266	0.41638	0	
0.770727	0.392467	0	
0.648884	0.402283	0	
0.512388	0.496507	0	
0.552149	0.573022	0	
0.8592	0.828375	0	
0.35307	0.0330085	0	
0.276116	0.0752249	0	
0.545336	0.958035	0	
0.415689	0.587968	0	
0.264079	0.255727	0	
0.326133	0.653358	0	
0.744878	0.723395	0	
0.861166	0.708376	0	
0.434954	0.857253	0	
0.57673	0.0920588	0	
0.51692	0.145185	0	
0.0669517	0.620852	0	
0.462803	0.462089	0	
0.672229	0.683	0	
0.796756	0.770714	0	
0.687222	0.334277	0	
0.326293	0.427436	0	
0.221782	0.624049	0	
0.842404	0.937922	0	
0.803125	0.368736	0	
0.394322	0.727175	0	
0.877413	0.298507	0	
0.886185	0.376792	0	
0.220993	0.587392	0	
0.960725	0.448089	0	
0.966038	0.489689	0	
0.0939227	0.454775	0	
0.137656	0.411317	0	
0.951682	0.323266	0	
0.641049	0.0382973	0	
0.874299	0.942654	0	
0.490046	0.803347	0	
0.222332	0.911722	0	
0.601465	0.0324936	0	
0.556855	0.305758	0	
0.971098	0.589918	0	
0.939756	0.663342	0	
0.965474	0.732415	0	
0.708436	0.0312288	0	
0.859465	0.649379	0	
0.289661	0.205879	0	
0.76784	0.0324919	0	
0.190369	0.270193	0	
0.175027	0.161154	0	
0.959046	0.104523	0	
0.270075	0.719828	0	
0.258523	0.63561	0	
0.222681	0.0783563	0	
0.391634	0.0378055	0	
0.476874	0.43067	0	
0.0894972	0.253231	0	
0.286423	0.0298053	0	
0.388515	0.897391	0	
0.449489	0.660898	0	
0.970089	0.27963	0	
0.962206	0.366757	0	
0.644618	0.315199	0	
0.523812	0.922936	0	
0.761287	0.838032	0	
0.651277	0.972248	0	
0.714535	0.918394	0	
0.678785	0.848196	0	
0.0313446	0.335171	0	
0.287917	0.900071	0	
0.32552	0.53	0	
0.214622	0.379693	0	
0.761909	0.185189	0	
0.84309	0.194146	0	
0.881514	0.103584	0	
0.0397238	0.303935	0	
0.833961	0.0914004	0	
0.154742	0.90336	0	
0.493936	0.287998	0	
0.557905	0.247362	0	
0.416413	0.449463	0	
0.435102	0.521864	0	
0.497515	0.54194	0	
0.422186	0.783738	0	
0.335143	0.908391	0	
0.292119	0.867313	0	
0.363416	0.833839	0	
0.31901	0.809348	0	
0.36107	0.858167	0	
0.217071	0.141646	0	
0.0401579	0.535927	0	
0.085694	0.583169	0	
0.0851208	0.188458	0	
0.32307	0.0248991	0	
0.193232	0.727399	0	
0.961881	0.150475	0	
0.93287	0.265226	0	
0.120577	0.53358	0	
0.640142	0.77902	0	
0.724956	0.751068	0	
0.0319169	0.393695	0	
0.0270028	0.454197	0	
0.969287	0.548935	0	
0.280806	0.532634	0	
0.615427	0.974887	0	
0.62658	0.534611	0	
0.920957	0.439814	0	
0.720419	0.533114	0	
0.547686	0.454312	0	
0.817504	0.478259	0	
0.974566	0.651895	0	
0.423123	0.027396	0	
0.845998	0.35945	0	
0.260019	0.144045	0	
0.565516	0.0231987	0	
0.367019	0.966619	0	
0.773476	0.31822	0	
0.0494253	0.749944	0	
0.470126	0.97658	0	
0.602941	0.904353	0	
0.528687	0.983485	0	
0.557246	0.840364	0	
0.395934	0.26772	0	
0.661052	0.93379	0	
0.446056	0.162039	0	
0.0267267	0.228765	0	
0.0454139	0.189351	0	
0.262599	0.439288	0	
0.839293	0.867492	0	
0.349642	0.372583	0	
0.221001	0.953998	0	
0.48748	0.479091	0	
0.29216	0.966383	0	
0.245282	0.552227	0	
0.97524	0.0656473	0	
0.0225668	0.285758	0	
0.88853	0.730556	0	
0.641657	0.140989	0	
0.786169	0.672917	0	
0.0872692	0.3545	0	
0.0238318	0.362253	0	
0.916999	0.224454	0	
0.977781	0.177547	0	
0.231921	0.317753	0	
0.781735	0.972851	0	
0.652454	0.0748536	0	
0.622643	0.288064	0	
[...]
POINT_DATA	915
VECTORS u float
0	0	0	
0	0	0	
1	0	0	
1	0	0	
-0.159364	0.0685097	0	
1	0	0	
0	0	0	
0	0	0	
0	0	0	
-0.180837	-0.244986	0	
-0.109099	-0.0230969	0	
-0.074121	0.0419716	0	
-0.0669582	0.185975	0	
-0.133123	0.0223791	0	
0	0	0	
0	0	0	
1	0	0	
0	0	0	
0	0	0	
0	0	0	
0	0	0	
1	0	0	
-0.0409275	0.0646928	0	
-0.0675984	0.129702	0	
-0.0388689	-0.105556	0	
-0.0192191	-0.213406	0	
-0.0929673	-0.0370527	0	
0.00725495	0.176233	0	
0.0839384	0.132149	0	
-0.186656	-0.0490912	0	
-0.0149642	0.0158977	0	
0.0741576	0.0848174	0	
0.0168739	-0.326462	0	
-0.0394852	0.175881	0	
-0.0431828	0.0088431	0	
-0.165301	0.0406284	0	
-0.106073	0.0711937	0	
-0.0624399	-0.405248	0	
-0.022581	0.114497	0	
-0.0109752	0.165445	0	
-0.0209074	0.0407713	0	
-0.0259692	0.235598	0	
0	0	0	
-0.0945998	-0.003864	0	
-0.0610486	-0.00849577	0	
0.09836	0.123823	0	
-0.0142201	-0.0124837	0	
0	0	0	
0	0	0	
1	0	0	
0	0	0	
1	0	0	
0	0	0	
0	0	0	
0	0	0	
0	0	0	
0	0	0	
0	0	0	
0	0	0	
1	0	0	
0	0	0	
1	0	0	
-0.0283393	0.010178	0	
-0.0066946	0.0410489	0	
-0.0680384	-0.0913315	0	
-0.0289522	-0.182331	0	
-0.032424	0.129054	0	
-0.0140839	-0.0214897	0	
0.308623	-0.106954	0	
-0.112589	0.0820022	0	
-0.0225523	0.197857	0	
-0.0973388	0.147472	0	
-0.138748	-0.18088	0	
-0.0740002	0.064627	0	
0.175726	0.0982947	0	
-0.17534	-0.151128	0	
0.148151	-0.0306075	0	
0.0744137	0.137778	0	
0.260426	-0.170113	0	
-0.193681	0.00466783	0	
-0.0125535	-0.0397764	0	
-0.115766	-0.0623773	0	
-0.189253	-0.0778727	0	
-0.0268095	-0.00498123	0	
0.104402	-0.287701	0	
-0.00251475	0.00340847	0	
-0.0442559	0.0263353	0	
-0.0241252	0.0757988	0	
-0.0005915	-0.000677025	0	
0.0128807	0.149347	0	
0.164787	-0.183665	0	
-0.1343	0.110059	0	
-0.0599531	0.148575	0	
0.344434	-0.000552588	0	
-0.00985811	0.00433972	0	
-0.127286	-0.2153	0	
-0.0988887	0.137841	0	
-0.003612	-0.00532633	0	
-0.0255523	0.00360352	0	
-0.0193458	-0.165753	0	
0.0125304	-0.394871	0	
-0.0807869	0.00424285	0	
0.0198022	0.130189	0	
-0.0887037	-0.195928	0	
-0.00196049	0.0692467	0	
-0.0286543	0.211694	0	
-0.0798496	0.178432	0	
-0.0490325	-0.0443439	0	
-0.164791	-0.159972	0	
-0.150359	-0.0391657	0	
-0.148813	0.0614081	0	
-0.141907	0.0752239	0	
-0.00444733	0.160582	0	
0.347119	0.0405731	0	
-0.133651	-0.00351259	0	
-0.00528436	0.0549356	0	
-0.0662768	-0.00435037	0	
-0.0194636	0.179152	0	
-0.00808373	0.106877	0	
-0.0366495	-0.0568297	0	
-0.148948	-0.337927	0	
0.0392077	0.15912	0	
-0.0388975	-0.0254142	0	
-0.0949429	0.0237202	0	
-0.0991763	0.0337465	0	
-0.189365	-0.168271	0	
-0.202887	-0.0903745	0	
-0.00547535	0.019293	0	
-0.0341585	-0.0192822	0	
0.72086	-0.0109038	0	
-0.0079248	0.0398288	0	
-0.0340122	-0.0013409	0	
-0.197255	-0.147116	0	
-0.0283475	-0.123472	0	
0.507878	-0.0572844	0	
-0.0374921	0.204773	0	
0.540814	0.0130308	0	
-0.092077	0.0970234	0	
-0.00271527	-0.00736076	0	
-0.00380309	0.00769262	0	
-0.0171871	-0.00436614	0	
-0.129049	0.125611	0	
-0.0744284	-0.0568318	0	
0.198262	0.108919	0	
-0.0777613	0.112092	0	
-0.0172497	-0.0557612	0	
-0.00449075	0.0220499	0	
-0.0913865	-0.0167511	0	
0.119474	0.115857	0	
0.661679	0.0175023	0	
0.49169	0.0333001	0	
-0.128914	-0.287421	0	
0.362444	0.0628978	0	
0	0	0	
0	0	0	
0	0	0	
-0.0550967	0.0258394	0	
0	0	0	
0	0	0	
0	0	0	
-0.0312281	0.111736	0	
0	0	0	
0	0	0	
1	0	0	
0	0	0	
0	0	0	
0	0	0	
0	0	0	
0	0	0	
-0.0281075	0.208979	0	
1	0	0	
0	0	0	
1	0	0	
1	0	0	
0.0580096	-0.224722	0	
-0.000393464	0.0414857	0	
-0.0606261	-0.457465	0	
0.173183	0.0369684	0	
0	0	0	
0	0	0	
0	0	0	
0	0	0	
0	0	0	
1	0	0	
0	0	0	
1	0	0	
0	0	0	
0	0	0	
0	0	0	
0	0	0	
1	0	0	
1	0	0	
-0.115805	-0.0946714	0	
-0.0188866	0.0112407	0	
-0.0542323	0.0480463	0	
-0.187867	-0.0105773	0	
-0.123951	0.0091562	0	
-0.0932433	0.0101385	0	
-0.18123	-0.210281	0	
-0.104638	-0.153164	0	
-0.110081	0.149481	0	
-0.114191	-0.0371908	0	
-0.0674762	-0.0394751	0	
-0.0717292	-0.0299688	0	
-0.184779	0.00651493	0	
-0.0306343	0.197909	0	
0.0555517	0.149717	0	
0.436867	-0.0220393	0	
-0.0634685	-0.131037	0	
-0.0573682	0.0163361	0	
-0.00346167	-0.00178777	0	
-0.0293299	0.210493	0	
-0.110281	0.108153	0	
-0.162403	0.0804701	0	
-0.0587194	0.061563	0	
-0.0328417	0.0312183	0	
0.0239906	0.176183	0	
-0.0805898	0.175186	0	
-0.0284062	-0.0656474	0	
0.652983	0.00600988	0	
-0.0389762	-0.00391404	0	
-0.1988	-0.0311038	0	
0.0374315	-0.392969	0	
-0.036072	-0.306761	0	
-0.182965	-0.217534	0	
0.732864	0.00854969	0	
-0.0122903	0.00994428	0	
-0.10129	0.0456852	0	
-0.167668	-0.0301045	0	
-0.0356446	0.00429703	0	
-0.18124	0.0351204	0	
0.0261398	0.0126792	0	
-0.0905722	0.160201	0	
0.21832	0.0793986	0	
-0.0829409	-0.0234038	0	
-0.0116403	0.181011	0	
0.00191866	-0.0865601	0	
0.349545	0.0431028	0	
-0.0986932	-0.26889	0	
-0.0707703	-0.27441	0	
-0.0330267	-0.0294225	0	
-0.00214773	-0.00908049	0	
-0.0856144	-0.163366	0	
-0.0623526	-0.190751	0	
-0.0131499	0.00212893	0	
-0.0739311	0.0892506	0	
-0.069151	0.00748084	0	
0.798155	-2.93291e-015	0	
-0.0194457	0.148255	0	
-0.173669	0.0126379	0	
-0.114188	-0.00207818	0	
-0.190361	-0.108706	0	
0.205856	0.0982476	0	
0.421482	0.0396531	0	
-0.013716	-0.0600376	0	
-0.0634933	-0.12542	0	
-0.0634758	-0.379778	0	
-0.081375	-0.330487	0	
-0.153257	-0.233961	0	
0.00707576	0.105333	0	
0.201188	0.0683953	0	
-0.0028488	0.00250574	0	
-0.000722541	0.000350631	0	
-0.01821	0.195621	0	
-0.031031	0.196352	0	
-0.0389254	-0.0131826	0	
-0.14945	0.0999499	0	
-0.0591478	-0.000343276	0	
-0.0908002	0.0631964	0	
-0.0153347	0.0273731	0	
-0.0397563	0.0118081	0	
-0.0989947	-0.0290685	0	
-0.158333	-0.0993871	0	
-0.160798	-0.0699957	0	
-0.20589	-0.108399	0	
-0.200502	-0.0328408	0	
-0.0584467	0.0374934	0	
-0.0782112	-0.383355	0	
0.254454	-0.365088	0	
0.306109	-0.136415	0	
-0.0177732	0.077854	0	
-0.00736707	0.0669312	0	
-0.0440473	0.155517	0	
-0.0200907	0.0593079	0	
-0.131589	0.109897	0	
0.459321	0.0369243	0	
-0.0349307	0.00232975	0	
-0.143907	0.0849063	0	
-0.0708894	0.0288768	0	
-0.149352	0.00347091	0	
-0.0320265	0.154428	0	
0.0592741	0.12723	0	
-0.109206	0.0239599	0	
-0.0841592	0.0140247	0	
-0.0443654	0.135396	0	
-0.097838	0.128492	0	
-0.0450732	-0.0109432	0	
-0.0198217	-0.0104408	0	
-0.000152654	-0.000345833	0	
-0.025197	-0.037198	0	
-0.0303125	-0.127936	0	
-0.0885165	0.0791235	0	
-0.0458764	0.0972624	0	
0.0878173	-0.097864	0	
0.10915	-0.228203	0	
0.000179746	8.98731e-005	0	
-0.0460434	0.272335	0	
0.236101	0.0909047	0	
0.33385	0.0614717	0	
-0.163597	-0.283029	0	
-0.119971	-0.250074	0	
-0.145287	-0.0828763	0	
-0.175205	-0.103275	0	
0.0130272	0.0754951	0	
-0.0154527	0.189855	0	
-0.00177374	0.0637666	0	
0.309062	0.0265956	0	
0.0310502	0.188701	0	
-0.197226	-0.0673614	0	
-0.0147728	0.0153438	0	
0.163927	0.00574964	0	
0.18077	-0.08718	0	
-0.0783967	0.143333	0	
-0.167028	-0.187956	0	
-0.0995906	0.00401724	0	
-0.0601182	0.00245057	0	
-0.0293292	-0.000376538	0	
-0.0598012	-0.0712173	0	
-0.14456	0.0317708	0	
-0.031614	0.128208	0	
-0.131274	-0.027654	0	
-0.0402664	0.000441171	0	
-0.0152944	0.207954	0	
-0.0773345	0.111309	0	
-0.0543011	0.0826927	0	
-0.0878273	-0.253445	0	
-0.0129518	0.0406269	0	
0.143174	-0.436342	0	
-0.0685023	0.189799	0	
-0.0339527	0.209162	0	
-0.0175837	-0.0359794	0	
-0.130624	0.128117	0	
-0.0910204	-0.0509096	0	
-0.0506385	-0.0240028	0	
-0.0316143	-0.422041	0	
-0.0220764	0.176599	0	
-0.0668185	0.0126317	0	
-0.00994479	-0.00387221	0	
-0.00272695	-0.000594951	0	
-0.0869076	0.0379701	0	
-0.0275918	-0.010478	0	
-0.179197	-0.0193396	0	
-0.00773368	0.00904875	0	
-0.0522179	-0.142302	0	
-0.130299	0.041056	0	
-0.0122923	0.102942	0	
0.763176	0.00579237	0	
-0.176388	0.0288446	0	
-0.121504	-0.134071	0	
-0.181109	-0.081599	0	
-0.18005	0.0447634	0	
-0.163362	0.0317181	0	
0.0188385	-0.345192	0	
-0.015839	0.000349731	0	
-0.0248507	0.004512	0	
0.739109	0.00391323	0	
-0.110195	0.141774	0	
-0.0679352	0.0504002	0	
-0.0582631	0.192365	0	
-0.0770169	-0.202329	0	
-0.108504	-0.396254	0	
0.206317	0.0890894	0	
-0.0503289	-0.00370589	0	
-0.077912	-0.00118736	0	
-0.00996417	0.106402	0	
-0.166627	0.0690436	0	
-0.0945413	-0.0864363	0	
-0.0347994	-0.291922	0	
-0.136299	-0.0818021	0	
-0.112324	0.111965	0	
-0.0422523	0.198621	0	
0.492026	-0.143401	0	
-0.0873291	-0.118055	0	
-0.00877389	0.167376	0	
-0.027969	-0.0547104	0	
-0.0375346	-0.0915144	0	
-0.0496932	0.182194	0	
-0.00542709	-0.0531281	0	
-0.005632	-0.0605966	0	
-0.015374	0.0909438	0	
-0.0306069	0.0958891	0	
-0.00495243	-0.025811	0	
-0.0191565	-0.00112575	0	
0.47243	-0.164436	0	
0.117904	0.0990687	0	
0.1714	0.13367	0	
-0.0184988	-0.000514127	0	
-0.148063	-0.0165129	0	
1.10352e-016	-0.0945382	0	
-0.038596	-0.264653	0	
-0.0196049	-0.246671	0	
-0.0115268	-0.000676395	0	
-0.122574	-0.356557	0	
-0.0643639	0.0336911	0	
-0.00722314	-0.000678477	0	
-0.043689	0.0538066	0	
-0.0246541	0.0202775	0	
-0.000423487	-0.000602604	0	
-0.027061	0.205088	0	
-0.0494523	0.199395	0	
-0.0182302	0.00613662	0	
-0.0201617	0.00093943	0	
-0.170824	0.049729	0	
-0.0118323	0.031177	0	
-0.0104816	-5.43741e-016	0	
0.310867	0.0653572	0	
-0.067475	0.138967	0	
-1.51342e-015	-0.0111303	0	
-0.00203544	-0.0279296	0	
-0.14018	-0.0580752	0	
0.532067	0.0247457	0	
0.173439	-0.140288	0	
0.83858	-4.02491e-016	0	
0.537315	-0.0354161	0	
0.261605	-0.0293079	0	
-0.00179169	0.0212013	0	
0.213599	0.0759423	0	
-0.0989547	0.155861	0	
-0.062085	0.0995649	0	
-0.0469047	-0.0318996	0	
-0.0234005	-0.0271437	0	
-0.00564416	-0.0052585	0	
-0.00293977	0.0215031	0	
-0.0105443	-0.00618465	0	
0.0655368	0.103749	0	
-0.137561	0.00987551	0	
-0.122158	-0.0143391	0	
-0.149308	0.0893287	0	
-0.144739	0.108323	0	
-0.161001	0.0719168	0	
0.0572916	0.140996	0	
0.306416	0.0728059	0	
0.115691	0.127034	0	
0.10199	0.135638	0	
0.0335267	0.160904	0	
0.153685	0.116365	0	
-0.0311539	0.0174242	0	
-0.00283446	0.0616058	0	
-0.00853267	0.119447	0	
-0.00853131	0.0154169	0	
-0.0103677	0.000837867	0	
-0.0212395	0.202424	0	
-0.000826323	-0.00219117	0	
-0.00655339	-0.0218006	0	
-0.0220301	0.130293	0	
0.0865503	-0.00889915	0	
-0.00588022	-0.137084	0	
-0.00286502	0.0298504	0	
-0.00192862	0.0321937	0	
-0.00707946	-0.0860919	0	
-0.0804659	0.165341	0	
0.854761	-0.000398541	0	
-0.200216	-0.0631389	0	
-0.0247191	-0.0997206	0	
-0.200243	-0.178337	0	
-0.190904	0.00319163	0	
-0.124687	-0.204192	0	
-0.0116652	-0.117765	0	
-0.0159939	0.000154828	0	
-0.0571593	-0.0995064	0	
-0.0411163	0.0182203	0	
-0.0141483	-1.28176e-015	0	
0.714653	0.00555167	0	
-0.0853403	-0.0892806	0	
-0.00390053	0.110868	0	
0.832878	-8.02353e-016	0	
0.472139	0.0145754	0	
0.890622	-1.98875e-015	0	
0.232891	0.047976	0	
-0.11242	0.0366218	0	
0.627631	-0.0163439	0	
-0.0822128	0.00894658	0	
-2.70143e-015	0.00765156	0	
-0.0027763	0.00928914	0	
-0.0848175	0.126931	0	
0.174247	-0.252571	0	
-0.119653	0.0839047	0	
0.448128	0.0641664	0	
-0.173437	0.0570601	0	
0.657202	0.0215804	0	
-0.0647038	0.175115	0	
3.64568e-015	0.000249422	0	
-0.000282499	0.0108357	0	
-0.0776101	-0.403309	0	
-0.0631207	-0.0153724	0	
-0.137824	-0.302245	0	
-0.0139365	0.0564894	0	
0.000220148	0.0186838	0	
-0.00770761	-0.0181124	0	
-0.00054292	-0.00294364	0	
-0.0653362	0.0744565	0	
0.741696	6.22765e-015	0	
-0.0343145	-0.00520674	0	
-0.131494	-0.0428841	0	
-0.15278	-0.270273	0	
-0.190264	-0.207468	0	
-0.104374	-0.0117817	0	
-0.0415726	0.223016	0	
-0.168049	-0.126889	0	
0.305606	0.0954398	0	
-0.0554042	0.0175067	0	
-1.74837e-015	0.0561485	0	
-0.0696867	0.0196669	0	
-0.0469043	0.207651	0	
-5.14864e-016	0.00284488	0	
-0.00322155	5.6636e-017	0	
-0.00846935	0.00237682	0	
-0.00129613	0.00280204	0	
8.49491e-016	0.000869731	0	
-0.1314	0.0626551	0	
8.11859e-016	-1.3986e-015	0	
-0.179342	0.0290023	0	
-6.55403e-005	3.61594e-005	0	
-0.00577782	0.12319	0	
-0.00397609	-0.269785	0	
-0.0150754	-0.415225	0	
1.87702e-015	-0.242184	0	
-9.23821e-015	0.0699925	0	
-0.0784008	0.0784008	0	
0.0120112	0.236188	0	
0.371788	0.00915906	0	
0.0555164	0.0464656	0	
-0.0453896	-0.318478	0	
-0.164531	-0.0616457	0	
0.719089	-0.0381753	0	
-0.0139034	-0.000628104	0	
0.573133	-0.0694165	0	
0.338092	-0.0426971	0	
-0.00730571	-0.000577279	0	
0.680861	0.00612859	0	
-0.0044159	-1.0561e-015	0	
0.0838209	-0.13287	0	
-0.118506	0.129756	0	
-0.00357024	-0.0226725	0	
0.00101407	-0.0273666	0	
-7.61364e-016	-0.22864	0	
0.710599	5.43011e-015	0	
-0.00235287	0.0542633	0	
5.94232e-016	0.0283787	0	
0.603264	3.03966e-015	0	
-0.0184335	0.162354	0	
-0.0384988	0.171517	0	
-0.016932	0.174993	0	
0.314248	-0.00358658	0	
-0.0707491	0.17632	0	
-0.0955187	0.168066	0	
-0.0222946	0.000364741	0	
-0.0138747	-0.0468366	0	
-1.80797e-015	-0.0109758	0	
-0.0441147	-0.0514407	0	
-0.0133513	0.0922471	0	
-0.093574	-0.0760453	0	
-0.111689	-0.0761665	0	
-0.00838603	-0.012177	0	
-0.0119773	0.090986	0	
-0.0860435	-0.335932	0	
-0.13757	-0.322503	0	
-0.1136	0.128465	0	
-0.00390186	-0.00390186	0	
-0.12085	0.134575	0	
-0.150861	-0.183083	0	
-0.0956011	0.113158	0	
-0.181788	-0.259378	0	
-0.158354	0.0202753	0	
-0.0360216	0.192504	0	
-0.199375	-0.128437	0	
0.000684668	0.0539009	0	
0.223771	-0.137838	0	
-0.115844	0.0552551	0	
-0.0972946	-0.031394	0	
-0.0977715	0.0334429	0	
-0.0702227	0.00113126	0	
0	0	0	
-0.0501099	0.00563198	0	
-0.00887006	0.054147	0	
-0.0159798	-8.81471e-017	0	
0	0	0	
0	0	0	
-0.047411	0.1199	0	
0	0	0	
0.444356	-0.00120133	0	
0	0	0	
1	0	0	
1	0	0	
0	0	0	
0	0	0	
1	0	0	
0	0	0	
0	0	0	
0	0	0	
0	0	0	
0	0	0	
1	0	0	
0	0	0	
0	0	0	
0	0	0	
0	0	0	
0	0	0	
1	0	0	
0	0	0	
-0.0247199	-0.0178409	0	
-0.00850016	-0.0105316	0	
-0.0569116	-0.0191375	0	
-0.0392287	0.190153	0	
1	0	0	
0	0	0	
0.000443215	-0.00318961	0	
0	0	0	
0	0	0	
0.476099	0.0406775	0	
0.369846	0.0462569	0	
0	0	0	
1	0	0	
0	0	0	
0	0	0	
0	0	0	
1	0	0	
0	0	0	
0	0	0	
0	0	0	
1	0	0	
0	0	0	
0	0	0	
0	0	0	
0	0	0	
-0.0348068	0.0771324	0	
-0.0596484	0.11226	0	
-0.0389032	0.0642766	0	
0	0	0	
0	0	0	
-0.034073	0.00709903	0	
0	0	0	
0	0	0	
1	0	0	
0	0	0	
1	0	0	
1	0	0	
0	0	0	
0	0	0	
1	0	0	
0	0	0	
0	0	0	
0	0	0	
0	0	0	
1	0	0	
0	0	0	
1	0	0	
0	0	0	
0	0	0	
0	0	0	
0	0	0	
1	0	0	
-0.0327454	0.136844	0	
-0.054647	0.133242	0	
-0.106965	-0.110347	0	
0.074461	0.0529478	0	
-0.08324	0.0761976	0	
-0.0905921	0.124206	0	
-0.163935	-0.300263	0	
0.10523	0.0206376	0	
0.227474	-0.00931909	0	
-0.0176746	0.0147133	0	
-0.0355083	0.0259909	0	
-0.029184	0.0389993	0	
0.0518501	0.11098	0	
-0.0415011	0.0983284	0	
0.026139	0.158948	0	
0.00695857	0.181201	0	
0.0750466	0.14954	0	
-0.0312175	0.198362	0	
-0.0727511	0.160515	0	
-0.16889	-0.0470079	0	
-0.0659412	0.177399	0	
-0.0429679	0.203893	0	
0.0525383	0.172087	0	
-0.00178473	0.158992	0	
-0.0586922	-0.0434768	0	
-0.00156463	0.000901845	0	
-0.0604508	-0.135661	0	
-0.130039	-0.340781	0	
-0.108101	0.0991476	0	
-0.135501	0.0786766	0	
-0.0563227	-0.167461	0	
-0.0138162	-0.457015	0	
-0.0174577	-0.00599938	0	
-0.189714	-0.178576	0	
-0.0577037	0.0137612	0	
-0.0547979	0.19209	0	
-0.0758654	-0.0148737	0	
0.0118567	0.130112	0	
-0.0691868	0.161563	0	
-0.175107	-0.103606	0	
-0.184195	-0.139368	0	
-0.0781271	-0.122583	0	
-0.136153	-0.156076	0	
-0.137654	-0.118368	0	
-0.143684	0.018727	0	
-0.152475	-0.205928	0	
-0.021097	0.00550326	0	
-0.0221525	0.213946	0	
0.00596948	0.202286	0	
-0.0276778	-0.00756892	0	
-0.0797964	0.0541914	0	
-0.132491	-0.0199543	0	
-0.0756436	-0.0708923	0	
-0.00166813	0.202334	0	
0.0655329	-0.051093	0	
0.0918077	-0.139827	0	
-0.035107	-0.0379234	0	
0.212404	-0.152524	0	
0.307709	-0.14543	0	
0.691646	-0.00593354	0	
-0.00462897	-0.00701155	0	
-0.0439806	-0.0745302	0	
-0.0212742	-0.0212601	0	
-0.0172723	-0.0122336	0	
-0.190691	-0.00221741	0	
-0.0222137	0.0258197	0	
-0.0498079	0.177748	0	
-0.0520898	0.00371611	0	
-0.0356034	0.00277431	0	
-0.0886412	0.00103958	0	
-0.00169732	0.109286	0	
-0.0480922	-0.00177888	0	
0.0302645	-0.135284	0	
0.535437	-0.0483633	0	
-0.0544886	0.17271	0	
-0.191605	-0.0234316	0	
-0.0392739	-0.2092	0	
-0.201731	-0.105943	0	
-0.0397	-0.0712075	0	
0.281188	0.0580054	0	
-0.147709	0.10048	0	
-0.133965	-0.0154627	0	
-0.163766	-0.00392182	0	
-0.163307	-0.0256257	0	
-0.111885	0.148848	0	
-0.0782041	-0.0098901	0	
-0.12167	0.0288976	0	
-0.142657	0.0475652	0	
-0.0377475	-0.0163109	0	
-0.102569	0.0865144	0	
-0.0984632	0.0170439	0	
-0.0543146	-0.292731	0	
-0.190537	-0.211211	0	
-0.203403	-0.0595139	0	
-0.0811837	0.177711	0	
-0.052211	0.19534	0	
-0.123876	-0.360166	0	
-0.108057	-0.326154	0	
-0.133284	0.118399	0	
-0.00379078	-0.00054946	0	
0.0367977	-0.427204	0	
-0.0810556	-0.0388245	0	
0.0331158	0.163693	0	
-0.00565394	0.00498357	0	
-0.00306567	0.12885	0	
3.4564e-015	0.0552922	0	
-0.0875136	-0.10219	0	
-0.00860201	0.149222	0	
-0.174846	-0.0626188	0	
0.366337	0.0502388	0	
-0.0336854	0.194663	0	
0.143118	0.0635753	0	
-0.201656	-0.136577	0	
-0.033272	0.08763	0	
0.0132881	0.168124	0	
-0.183335	-0.0365216	0	
-0.00930054	0.0136992	0	
-0.0637527	0.0564607	0	
-0.00433686	0.00204566	0	
0.612961	0.0108924	0	
0.490141	0.000401412	0	
0.0178292	-0.0367059	0	
-0.0257815	0.0541457	0	
-0.0521359	0.0673131	0	
-0.00643901	0.0972303	0	
-0.050973	0.00862494	0	
-0.0075463	0.03198	0	
-0.0487402	-0.0084324	0	
-0.14473	0.0179224	0	
-0.0193653	0.140664	0	
-0.0520504	-0.0728986	0	
-0.0758996	0.0777508	0	
-0.168756	-0.264955	0	
0.875802	0.0116583	0	
-0.119927	-0.224623	0	
-0.156903	0.0812009	0	
-0.00702101	0.150124	0	
-0.186875	0.0220828	0	
-0.0242226	-0.00322591	0	
0.309927	0.0641089	0	
0.409078	0.0224115	0	
-0.159221	-0.23619	0	
0.149851	0.110663	0	
-0.00640187	-0.00308823	0	
-0.00190164	-0.0019177	0	
-0.0130617	-0.0035062	0	
-0.140484	-0.126593	0	
-0.108766	0.0127221	0	
-0.0686394	-0.0215214	0	
-0.0120403	0.11822	0	
-0.081967	-0.00573445	0	
-0.0547028	-0.187047	0	
-0.00260057	-0.0564766	0	
-0.0276834	0.173543	0	
-0.10113	0.0569396	0	
-0.0512181	0.186727	0	
-0.163094	0.0527998	0	
-0.172175	-0.00418427	0	
-0.0581146	0.160802	0	
-0.136151	0.0542221	0	
-0.203826	-0.0711754	0	
-0.202365	-0.145537	0	
-0.0316759	0.050619	0	
-0.127602	0.0976456	0	
0.233102	-0.107773	0	
-0.0991424	0.00171095	0	
-0.116283	0.0536172	0	
0.0292566	-0.311922	0	
-0.122376	0.112766	0	
-0.0221546	0.0103925	0	
-0.0478195	0.0182704	0	
-0.106119	-0.305395	0	
-0.152656	-0.317006	0	
-0.0804125	0.0195185	0	
-0.152801	0.0404666	0	
-0.0080819	0.140554	0	
-0.118649	0.0680184	0	
-0.0226017	0.207723	0	
-0.0602372	-0.0588884	0	
-0.0102357	0.207828	0	
-0.0235378	0.156149	0	
0.0117582	0.15848	0	
-0.137862	-0.0983759	0	
-0.0961556	-0.0230005	0	
-0.0907513	-0.00927349	0	
-0.0832415	0.153822	0	
-0.108215	0.14063	0	
-0.107499	-0.0476442	0	
-0.0146787	-0.0169685	0	
-0.0166106	-0.0284485	0	
-0.00670316	-0.0130723	0	
-0.0446127	-0.000504711	0	
-0.042687	0.00154674	0	
0.570358	-0.0172227	0	
0.427178	-0.0582748	0	
-0.0408909	0.041524	0	
-0.0503891	0.199581	0	
-0.00563048	-0.0232553	0	
-0.146668	-0.139035	0	
-0.022431	-0.0779066	0	
-0.0123586	0.0614913	0	
-0.0142357	0.0199121	0	
1.8129e-015	0.0350325	0	
-0.0279339	0.18062	0	
-0.0443808	0.0352485	0	
-0.0297163	0.152224	0	
-0.00196994	-0.00243162	0	
0.0689108	0.143395	0	
-0.0007029	8.9151e-016	0	
-0.120354	-0.374763	0	
-0.090222	-0.363084	0	
-0.0498588	-0.251883	0	
-0.0301884	0.21194	0	
0.0988216	0.113065	0	
-0.0206735	0.147526	0	
0.646069	0.0112093	0	
-1.50898e-015	-0.146842	0	
-0.0147363	0.0859837	0	
0.539873	0.019765	0	
0.645436	-0.0442062	0	
0.133302	0.0834555	0	
-0.103657	0.0296145	0	
-0.11992	0.0195715	0	
-0.0890034	0.0501188	0	
-0.000461582	-0.310522	0	
0.238184	0.0156766	0	
0.000535491	0.0251931	0	
-0.11703	0.0983152	0	
0.163144	-0.0622506	0	
-0.00660066	0.0717227	0	
-0.00260631	0.19019	0	
0.00841906	0.188489	0	
-0.121272	-0.152784	0	
-0.153357	-0.260213	0	
-0.112926	-0.177608	0	
-0.0696476	-0.44659	0	
-0.0306685	0.127945	0	
-0.0227653	0.0955338	0	
-0.155961	-0.0537053	0	
-0.122407	-0.0495595	0	
-0.0159754	0.00686625	0	
-0.194384	-0.043241	0	
-0.0280872	0.160712	0	
-0.0938255	0.165356	0	
-0.0838421	0.0272436	0	
-0.111476	0.00612732	0	
-0.038439	-0.386993	0	
0.0878569	-0.248651	0	
0.0506838	0.153477	0	
-0.0973204	-0.0645829	0	
-0.0298157	0.0647341	0	
-0.000939496	0.00768604	0	
-0.0343364	-0.0244143	0	
SCALARS p float
LOOKUP_TABLE default
0
0
0
0
-0.00908211
-0.0542085
0.00945975
-0.0569782
0.0105604
-0.012376
0.0103004
0.00444832
-0.0179697
0.00747012
0.391184
0.0163294
0.364394
0.0176667
0.0115474
0.0103368
-0.0548649
0.481721
-0.0585163
-0.00684284
0.0174567
0.105038
0.00943459
-0.0843677
-0.0518782
0.00222193
0.00707818
-0.0749864
0.125884
-0.0522053
0.00958939
-0.00169044
0.00390855
0.00394689