# vtk DataFile Version 4.1
vtk output
ASCII
DATASET UNSTRUCTURED_GRID

POINTS	2501	float
0	0	0	
0	1	0	
0	2	0	
0	3	0	
0	4	0	
0	5	0	
0	6	0	
0	7	0	
0	8	0	
0	9	0	
0	10	0	
0	11	0	
0	12	0	
0	13	0	
0	14	0	
0	15	0	
0	16	0	
0	17	0	
0	18	0	
0	19	0	
0	20	0	
0	21	0	
0	22	0	
0	23	0	
0	24	0	
0	25	0	
0	26	0	
0	27	0	
0	28	0	
0	29	0	
0	30	0	
0	31	0	
0	32	0	
0	33	0	
0	34	0	
0	35	0	
0	36	0	
0	37	0	
0	38	0	
0	39	0	
0	40	0	
1	0	0	
1	1	0	
1	2	0	
1	3	0	
1	4	0	
1	5	0	
1	6	0	
1	7	0	
1	8	0	
1	9	0	
1	10	0	
1	11	0	
1	12	0	
1	13	0	
1	14	0	
1	15	0	
1	16	0	
1	17	0	
1	18	0	
1	19	0	
1	20	0	
1	21	0	
1	22	0	
1	23	0	
1	24	0	
1	25	0	
1	26	0	
1	27	0	
1	28	0	
1	29	0	
1	30	0	
1	31	0	
1	32	0	
1	33	0	
1	34	0	
1	35	0	
1	36	0	
1	37	0	
1	38	0	
1	39	0	
1	40	0	
2	0	0	
2	1	0	
2	2	0	
2	3	0	
2	4	0	
2	5	0	
2	6	0	
2	7	0	
2	8	0	
2	9	0	
2	10	0	
2	11	0	
2	12	0	
2	13	0	
2	14	0	
2	15	0	
2	16	0	
2	17	0	
2	18	0	
2	19	0	
2	20	0	
2	21	0	
2	22	0	
2	23	0	
2	24	0	
2	25	0	
2	26	0	
2	27	0	
2	28	0	
2	29	0	
2	30	0	
2	31	0	
2	32	0	
2	33	0	
2	34	0	
2	35	0	
2	36	0	
2	37	0	
2	38	0	
2	39	0	
2	40	0	
3	0	0	
3	1	0	
3	2	0	
3	3	0	
3	4	0	
3	5	0	
3	6	0	
3	7	0	
3	8	0	
3	9	0	
3	10	0	
3	11	0	
3	12	0	
3	13	0	
3	14	0	
3	15	0	
3	16	0	
3	17	0	
3	18	0	
3	19	0	
3	20	0	
3	21	0	
3	22	0	
3	23	0	
3	24	0	
3	25	0	
3	26	0	
3	27	0	
3	28	0	
3	29	0	
3	30	0	
3	31	0	
3	32	0	
3	33	0	
3	34	0	
3	35	0	
3	36	0	
3	37	0	
3	38	0	
3	39	0	
3	40	0	
4	0	0	
4	1	0	
4	2	0	
4	3	0	
4	4	0	
4	5	0	
4	6	0	
4	7	0	
4	8	0	
4	9	0	
4	10	0	
4	11	0	
4	12	0	
4	13	0	
4	14	0	
4	15	0	
4	16	0	
4	17	0	
4	18	0	
4	19	0	
4	20	0	
4	21	0	
4	22	0	
4	23	0	
4	24	0	
4	25	0	
4	26	0	
4	27	0	
4	28	0	
4	29	0	
4	30	0	
4	31	0	
4	32	0	
4	33	0	
4	34	0	
4	35	0	
4	36	0	
4	37	0	
4	38	0	
4	39	0	
4	40	0	
5	0	0	
5	1	0	
5	2	0	
5	3	0	
5	4	0	
5	5	0	
5	6	0	
5	7	0	
5	8	0	
5	9	0	
5	10	0	
5	11	0	
5	12	0	
5	13	0	
5	14	0	
5	15	0	
5	16	0	
5	17	0	
5	18	0	
5	19	0	
5	20	0	
5	21	0	
5	22	0	
5	23	0	
5	24	0	
5	25	0	
5	26	0	
5	27	0	
5	28	0	
5	29	0	
5	30	0	
5	31	0	
5	32	0	
5	33	0	
5	34	0	
5	35	0	
5	36	0	
5	37	0	
5	38	0	
5	39	0	
5	40	0	
6	0	0	
6	1	0	
6	2	0	
6	3	0	
6	4	0	
6	5	0	
6	6	0	
6	7	0	
6	8	0	
6	9	0	
6	10	0	
6	11	0	
6	12	0	
6	13	0	
6	14	0	
6	15	0	
6	16	0	
6	17	0	
6	18	0	
6	19	0	
6	20	0	
6	21	0	
6	22	0	
6	23	0	
6	24	0	
6	25	0	
6	26	0	
6	27	0	
6	28	0	
6	29	0	
6	30	0	
6	31	0	
6	32	0	
6	33	0	
6	34	0	
6	35	0	
6	36	0	
6	37	0	
6	38	0	
6	39	0	
6	40	0	
7	0	0	
7	1	0	
7	2	0	
7	3	0	
7	4	0	
7	5	0	
7	6	0	
7	7	0	
7	8	0	
7	9	0	
7	10	0	
7	11	0	
7	12	0	
7	13	0	
7	14	0	
7	15	0	
7	16	0	
7	17	0	
7	18	0	
7	19	0	
7	20	0	
7	21	0	
7	22	0	
7	23	0	
7	24	0	
7	25	0	
7	26	0	
7	27	0	
7	28	0	
7	29	0	
7	30	0	
7	31	0	
7	32	0	
7	33	0	
7	34	0	
7	35	0	
7	36	0	
7	37	0	
7	38	0	
7	39	0	
7	40	0	
8	0	0	
8	1	0	
8	2	0	
8	3	0	
8	4	0	
8	5	0	
8	6	0	
8	7	0	
8	8	0	
8	9	0	
8	10	0	
8	11	0	
8	12	0	
8	13	0	
8	14	0	
8	15	0	
8	16	0	
8	17	0	
8	18	0	
8	19	0	
8	20	0	
8	21	0	
8	22	0	
8	23	0	
8	24	0	
8	25	0	
8	26	0	
8	27	0	
8	28	0	
8	29	0	
8	30	0	
8	31	0	
8	32	0	
8	33	0	
8	34	0	
8	35	0	
8	36	0	
8	37	0	
8	38	0	
8	39	0	
8	40	0	
9	0	0	
9	1	0	
9	2	0	
9	3	0	
9	4	0	
9	5	0	
9	6	0	
9	7	0	
9	8	0	
9	9	0	
9	10	0	
9	11	0	
9	12	0	
9	13	0	
9	14	0	
9	15	0	
9	16	0	
9	17	0	
9	18	0	
9	19	0	
9	20	0	
9	21	0	
9	22	0	
9	23	0	
9	24	0	
9	25	0	
9	26	0	
9	27	0	
9	28	0	
9	29	0	
9	30	0	
9	31	0	
9	32	0	
9	33	0	
9	34	0	
9	35	0	
9	36	0	
9	37	0	
9	38	0	
9	39	0	
9	40	0	
10	0	0	
10	1	0	
10	2	0	
10	3	0	
10	4	0	
10	5	0	
10	6	0	
10	7	0	
10	8	0	
10	9	0	
10	10	0	
10	11	0	
10	12	0	
10	13	0	
10	14	0	
10	15	0	
10	16	0	
10	17	0	
10	18	0	
10	19	0	
10	20	0	
10	21	0	
10	22	0	
10	23	0	
10	24	0	
10	25	0	
10	26	0	
10	27	0	
10	28	0	
10	29	0	
10	30	0	
10	31	0	
10	32	0	
10	33	0	
10	34	0	
10	35	0	
10	36	0	
10	37	0	
10	38	0	
10	39	0	
10	40	0	
11	0	0	
11	1	0	
11	2	0	
11	3	0	
11	4	0	
11	5	0	
11	6	0	
11	7	0	
11	8	0	
11	9	0	
11	10	0	
11	11	0	
11	12	0	
11	13	0	
11	14	0	
11	15	0	
11	16	0	
11	17	0	
11	18	0	
11	19	0	
11	20	0	
11	21	0	
11	22	0	
11	23	0	
11	24	0	
11	25	0	
11	26	0	
11	27	0	
11	28	0	
11	29	0	
11	30	0	
11	31	0	
11	32	0	
11	33	0	
11	34	0	
11	35	0	
11	36	0	
11	37	0	
11	38	0	
11	39	0	
11	40	0	
12	0	0	
12	1	0	
12	2	0	
12	3	0	
12	4	0	
12	5	0	
12	6	0	
12	7	0	
12	8	0	
12	9	0	
12	10	0	
12	11	0	
12	12	0	
12	13	0	
12	14	0	
12	15	0	
12	16	0	
12	17	0	
12	18	0	
12	19	0	
12	20	0	
12	21	0	
12	22	0	
12	23	0	
12	24	0	
12	25	0	
12	26	0	
12	27	0	
12	28	0	
12	29	0	
12	30	0	
12	31	0	
12	32	0	
12	33	0	
12	34	0	
12	35	0	
12	36	0	
12	37	0	
12	38	0	
12	39	0	
12	40	0	
13	0	0	
13	1	0	
13	2	0	
13	3	0	
13	4	0	
13	5	0	
13	6	0	
13	7	0	
13	8	0	
13	9	0	
13	10	0	
13	11	0	
13	12	0	
13	13	0	
13	14	0	
13	15	0	
13	16	0	
13	17	0	
13	18	0	
13	19	0	
13	20	0	
13	21	0	
13	22	0	
13	23	0	
13	24	0	
13	25	0	
13	26	0	
13	27	0	
13	28	0	
13	29	0	
13	30	0	
13	31	0	
13	32	0	
13	33	0	
13	34	0	
13	35	0	
13	36	0	
13	37	0	
13	38	0	
13	39	0	
13	40	0	
14	0	0	
14	1	0	
14	2	0	
14	3	0	
14	4	0	
14	5	0	
14	6	0	
14	7	0	
14	8	0	
14	9	0	
14	10	0	
14	11	0	
14	12	0	
14	13	0	
14	14	0	
14	15	0	
14	16	0	
14	17	0	
14	18	0	
14	19	0	
14	20	0	
14	21	0	
14	22	0	
14	23	0	
14	24	0	
14	25	0	
14	26	0	
14	27	0	
14	28	0	
14	29	0	
14	30	0	
14	31	0	
14	32	0	
14	33	0	
14	34	0	
14	35	0	
14	36	0	
14	37	0	
14	38	0	
14	39	0	
14	40	0	
15	0	0	
15	1	0	
15	2	0	
15	3	0	
15	4	0	
15	5	0	
15	6	0	
15	7	0	
15	8	0	
15	9	0	
15	10	0	
15	11	0	
15	12	0	
15	13	0	
15	14	0	
15	15	0	
15	16	0	
15	17	0	
15	18	0	
15	19	0	
15	20	0	
15	21	0	
15	22	0	
15	23	0	
15	24	0	
15	25	0	
15	26	0	
15	27	0	
15	28	0	
15	29	0	
15	30	0	
15	31	0	
15	32	0	
15	33	0	
15	34	0	
15	35	0	
15	36	0	
15	37	0	
15	38	0	
15	39	0	
15	40	0	
16	0	0	
16	1	0	
16	2	0	
16	3	0	
16	4	0	
16	5	0	
16	6	0	
16	7	0	
16	8	0	
16	9	0	
16	10	0	
16	11	0	
16	12	0	
16	13	0	
16	14	0	
16	15	0	
16	16	0	
16	17	0	
16	18	0	
16	19	0	
16	20	0	
16	21	0	
16	22	0	
16	23	0	
16	24	0	
16	25	0	
16	26	0	
16	27	0	
16	28	0	
16	29	0	
16	30	0	
16	31	0	
16	32	0	
16	33	0	
16	34	0	
16	35	0	
16	36	0	
16	37	0	
16	38	0	
16	39	0	
16	40	0	
17	0	0	
17	1	0	
17	2	0	
17	3	0	
17	4	0	
17	5	0	
17	6	0	
17	7	0	
17	8	0	
17	9	0	
17	10	0	
17	11	0	
17	12	0	
17	13	0	
17	14	0	
17	15	0	
17	16	0	
17	17	0	
17	18	0	
17	19	0	
17	20	0	
17	21	0	
17	22	0	
17	23	0	
17	24	0	
17	25	0	
17	26	0	
17	27	0	
17	28	0	
17	29	0	
17	30	0	
17	31	0	
17	32	0	
17	33	0	
17	34	0	
17	35	0	
17	36	0	
17	37	0	
17	38	0	
17	39	0	
17	40	0	
18	0	0	
18	1	0	
18	2	0	
18	3	0	
18	4	0	
18	5	0	
18	6	0	
18	7	0	
18	8	0	
18	9	0	
18	10	0	
18	11	0	
18	12	0	
18	13	0	
18	14	0	
18	15	0	
18	16	0	
18	17	0	
18	18	0	
18	19	0	
18	20	0	
18	21	0	
18	22	0	
18	23	0	
18	24	0	
18	25	0	
18	26	0	
18	27	0	
18	28	0	
18	29	0	
18	30	0	
18	31	0	
18	32	0	
18	33	0	
18	34	0	
18	35	0	
18	36	0	
18	37	0	
18	38	0	
18	39	0	
18	40	0	
19	0	0	
19	1	0	
19	2	0	
19	3	0	
19	4	0	
19	5	0	
19	6	0	
19	7	0	
19	8	0	
19	9	0	
19	10	0	
19	11	0	
19	12	0	
19	13	0	
19	14	0	
19	15	0	
19	16	0	
19	17	0	
19	18	0	
19	19	0	
19	20	0	
19	21	0	
19	22	0	
19	23	0	
19	24	0	
19	25	0	
19	26	0	
19	27	0	
19	28	0	
19	29	0	
19	30	0	
19	31	0	
19	32	0	
19	33	0	
19	34	0	
19	35	0	
19	36	0	
19	37	0	
19	38	0	
19	39	0	
19	40	0	
20	0	0	
20	1	0	
20	2	0	
20	3	0	
20	4	0	
20	5	0	
20	6	0	
20	7	0	
20	8	0	
20	9	0	
20	10	0	
20	11	0	
20	12	0	
20	13	0	
20	14	0	
20	15	0	
20	16	0	
20	17	0	
20	18	0	
20	19	0	
20	20	0	
20	21	0	
20	22	0	
20	23	0	
20	24	0	
20	25	0	
20	26	0	
20	27	0	
20	28	0	
20	29	0	
20	30	0	
20	31	0	
20	32	0	
20	33	0	
20	34	0	
20	35	0	
20	36	0	
20	37	0	
20	38	0	
20	39	0	
20	40	0	
21	0	0	
21	1	0	
21	2	0	
21	3	0	
21	4	0	
21	5	0	
21	6	0	
21	7	0	
21	8	0	
21	9	0	
21	10	0	
21	11	0	
21	12	0	
21	13	0	
21	14	0	
21	15	0	
21	16	0	
21	17	0	
21	18	0	
21	19	0	
21	20	0	
21	21	0	
21	22	0	
21	23	0	
21	24	0	
21	25	0	
21	26	0	
21	27	0	
21	28	0	
21	29	0	
21	30	0	
21	31	0	
21	32	0	
21	33	0	
21	34	0	
21	35	0	
21	36	0	
21	37	0	
21	38	0	
21	39	0	
21	40	0	
22	0	0	
22	1	0	
22	2	0	
22	3	0	
22	4	0	
22	5	0	
22	6	0	
22	7	0	
22	8	0	
22	9	0	
22	10	0	
22	11	0	
22	12	0	
22	13	0	
22	14	0	
22	15	0	
22	16	0	
22	17	0	
22	18	0	
22	19	0	
22	20	0	
22	21	0	
22	22	0	
22	23	0	
22	24	0	
22	25	0	
22	26	0	
22	27	0	
22	28	0	
22	29	0	
22	30	0	
22	31	0	
22	32	0	
22	33	0	
22	34	0	
22	35	0	
22	36	0	
22	37	0	
22	38	0	
22	39	0	
22	40	0	
23	0	0	
23	1	0	
23	2	0	
23	3	0	
23	4	0	
23	5	0	
23	6	0	
23	7	0	
23	8	0	
23	9	0	
23	10	0	
23	11	0	
23	12	0	
23	13	0	
23	14	0	
23	15	0	
23	16	0	
23	17	0	
23	18	0	
23	19	0	
23	20	0	
23	21	0	
23	22	0	
23	23	0	
23	24	0	
23	25	0	
23	26	0	
23	27	0	
23	28	0	
23	29	0	
23	30	0	
23	31	0	
23	32	0	
23	33	0	
23	34	0	
23	35	0	
23	36	0	
23	37	0	
23	38	0	
23	39	0	
23	40	0	
24	0	0	
24	1	0	
24	2	0	
24	3	0	
24	4	0	
24	5	0	
24	6	0	
24	7	0	
24	8	0	
24	9	0	
24	10	0	
24	11	0	
24	12	0	
24	13	0	
24	14	0	
24	15	0	
24	16	0	
24	17	0	
24	18	0	
24	19	0	
24	20	0	
24	21	0	
24	22	0	
24	23	0	
24	24	0	
24	25	0	
24	26	0	
24	27	0	
24	28	0	
24	29	0	
24	30	0	
24	31	0	
24	32	0	
24	33	0	
24	34	0	
24	35	0	
24	36	0	
24	37	0	
24	38	0	
24	39	0	
24	40	0	
25	0	0	
25	1	0	
25	2	0	
25	3	0	
25	4	0	
25	5	0	
25	6	0	
25	7	0	
25	8	0	
25	9	0	
25	10	0	
25	11	0	
25	12	0	
25	13	0	
25	14	0	
25	15	0	
25	16	0	
25	17	0	
25	18	0	
25	19	0	
25	20	0	
25	21	0	
25	22	0	
25	23	0	
25	24	0	
25	25	0	
25	26	0	
25	27	0	
25	28	0	
25	29	0	
25	30	0	
25	31	0	
25	32	0	
25	33	0	
25	34	0	
25	35	0	
25	36	0	
25	37	0	
25	38	0	
25	39	0	
25	40	0	
26	0	0	
26	1	0	
26	2	0	
26	3	0	
26	4	0	
26	5	0	
26	6	0	
26	7	0	
26	8	0	
26	9	0	
26	10	0	
26	11	0	
26	12	0	
26	13	0	
26	14	0	
26	15	0	
26	16	0	
26	17	0	
26	18	0	
26	19	0	
26	20	0	
26	21	0	
26	22	0	
26	23	0	
26	24	0	
26	25	0	
26	26	0	
26	27	0	
26	28	0	
26	29	0	
26	30	0	
26	31	0	
26	32	0	
26	33	0	
26	34	0	
26	35	0	
26	36	0	
26	37	0	
26	38	0	
26	39	0	
26	40	0	
27	0	0	
27	1	0	
27	2	0	
27	3	0	
27	4	0	
27	5	0	
27	6	0	
27	7	0	
27	8	0	
27	9	0	
27	10	0	
27	11	0	
27	12	0	
27	13	0	
27	14	0	
27	15	0	
27	16	0	
27	17	0	
27	18	0	
27	19	0	
27	20	0	
27	21	0	
27	22	0	
27	23	0	
27	24	0	
27	25	0	
27	26	0	
27	27	0	
27	28	0	
27	29	0	
27	30	0	
27	31	0	
27	32	0	
27	33	0	
27	34	0	
27	35	0	
27	36	0	
27	37	0	
27	38	0	
27	39	0	
27	40	0	
28	0	0	
28	1	0	
28	2	0	
28	3	0	
28	4	0	
28	5	0	
28	6	0	
28	7	0	
28	8	0	
28	9	0	
28	10	0	
28	11	0	
28	12	0	
28	13	0	
28	14	0	
28	15	0	
28	16	0	
28	17	0	
28	18	0	
28	19	0	
28	20	0	
28	21	0	
28	22	0	
28	23	0	
28	24	0	
28	25	0	
28	26	0	
28	27	0	
28	28	0	
28	29	0	
28	30	0	
[...]
POINT_DATA	2501
VECTORS d float
3.62035e-016	1.02096e-016	0	
2.56008e-016	7.5282e-017	0	
1.66598e-016	4.70169e-017	0	
1.45151e-016	4.58385e-017	0	
1.05082e-016	3.33925e-017	0	
6.44638e-017	1.95412e-017	0	
1.36788e-017	1.77731e-017	0	
-2.50544e-017	1.05715e-017	0	
-6.51847e-017	4.61096e-017	0	
-2.64099e-017	7.63617e-017	0	
-1.03467e-017	6.3661e-017	0	
-1.10452e-017	7.262e-017	0	
-9.35423e-018	7.36919e-017	0	
-4.1515e-018	7.39833e-017	0	
-8.3462e-018	7.44523e-017	0	
-3.46767e-018	7.82414e-017	0	
-5.10131e-018	7.54902e-017	0	
-2.33337e-018	7.97946e-017	0	
-2.28869e-018	7.64474e-017	0	
-8.18135e-019	8.01237e-017	0	
-2.86193e-024	7.68681e-017	0	
8.1813e-019	8.01237e-017	0	
2.28869e-018	7.64474e-017	0	
2.33336e-018	7.97946e-017	0	
5.1013e-018	7.54902e-017	0	
3.46766e-018	7.82414e-017	0	
8.3462e-018	7.44523e-017	0	
4.15149e-018	7.39833e-017	0	
9.35423e-018	7.36919e-017	0	
1.10452e-017	7.262e-017	0	
1.03467e-017	6.3661e-017	0	
2.64099e-017	7.63617e-017	0	
6.51847e-017	4.61096e-017	0	
2.50544e-017	1.05715e-017	0	
-1.36788e-017	1.77731e-017	0	
-6.44638e-017	1.95412e-017	0	
-1.05082e-016	3.33925e-017	0	
-1.45151e-016	4.58385e-017	0	
-1.66598e-016	4.70169e-017	0	
-2.56008e-016	7.5282e-017	0	
-3.62035e-016	1.02096e-016	0	
3.23283e-006	2.92714e-006	0	
1.27068e-006	1.58201e-006	0	
1.32645e-006	1.39538e-006	0	
8.23444e-007	1.15723e-006	0	
8.37496e-007	1.07883e-006	0	
4.95156e-007	8.91718e-007	0	
7.91862e-008	7.86774e-007	0	
-3.7822e-008	1.15442e-006	0	
-3.8922e-007	1.37583e-006	0	
-8.29723e-008	1.38723e-006	0	
-1.48743e-007	1.55916e-006	0	
-8.9107e-008	1.62165e-006	0	
-4.19874e-009	1.61486e-006	0	
-1.14877e-007	1.66118e-006	0	
-3.17256e-009	1.70956e-006	0	
-7.15973e-008	1.704e-006	0	
-9.35812e-009	1.75128e-006	0	
-3.59973e-008	1.73234e-006	0	
-7.60483e-009	1.76773e-006	0	
-1.11156e-008	1.74675e-006	0	
3.61424e-014	1.77267e-006	0	
1.11156e-008	1.74675e-006	0	
7.6049e-009	1.76773e-006	0	
3.59974e-008	1.73234e-006	0	
9.35819e-009	1.75128e-006	0	
7.15973e-008	1.704e-006	0	
3.17262e-009	1.70956e-006	0	
1.14877e-007	1.66118e-006	0	
4.19878e-009	1.61486e-006	0	
8.9107e-008	1.62165e-006	0	
1.48743e-007	1.55916e-006	0	
8.29723e-008	1.38723e-006	0	
3.8922e-007	1.37583e-006	0	
3.7822e-008	1.15442e-006	0	
-7.91862e-008	7.86774e-007	0	
-4.95156e-007	8.91718e-007	0	
-8.37496e-007	1.07883e-006	0	
-8.23444e-007	1.15723e-006	0	
-1.32645e-006	1.39538e-006	0	
-1.27068e-006	1.58201e-006	0	
-3.23283e-006	2.92714e-006	0	
4.56091e-006	4.18654e-006	0	
3.6485e-006	3.88864e-006	0	
2.21313e-006	2.96373e-006	0	
2.14114e-006	2.77974e-006	0	
1.38242e-006	2.46616e-006	0	
1.31735e-006	2.4568e-006	0	
3.66128e-007	2.37246e-006	0	
3.2715e-007	2.41993e-006	0	
-5.31961e-007	2.4064e-006	0	
-4.57782e-007	3.037e-006	0	
-2.84638e-007	3.11838e-006	0	
-4.17188e-008	3.0905e-006	0	
-2.8092e-007	3.27302e-006	0	
-3.64498e-008	3.35548e-006	0	
-1.92432e-007	3.35698e-006	0	
-3.41264e-008	3.47216e-006	0	
-1.07322e-007	3.42471e-006	0	
-2.79097e-008	3.51613e-006	0	
-4.93688e-008	3.46928e-006	0	
-1.00053e-008	3.53434e-006	0	
-6.54573e-014	3.48278e-006	0	
1.00052e-008	3.53434e-006	0	
4.93687e-008	3.46928e-006	0	
2.79096e-008	3.51613e-006	0	
1.07322e-007	3.42471e-006	0	
3.41263e-008	3.47216e-006	0	
1.92432e-007	3.35698e-006	0	
3.64498e-008	3.35548e-006	0	
2.8092e-007	3.27302e-006	0	
4.17187e-008	3.0905e-006	0	
2.84638e-007	3.11838e-006	0	
4.57782e-007	3.037e-006	0	
5.31961e-007	2.4064e-006	0	
-3.2715e-007	2.41993e-006	0	
-3.66128e-007	2.37246e-006	0	
-1.31735e-006	2.4568e-006	0	
-1.38242e-006	2.46616e-006	0	
-2.14114e-006	2.77974e-006	0	
-2.21313e-006	2.96373e-006	0	
-3.6485e-006	3.88864e-006	0	
-4.56091e-006	4.18654e-006	0	
6.69317e-006	6.28309e-006	0	
4.699e-006	5.29805e-006	0	
4.0715e-006	5.04611e-006	0	
2.76101e-006	4.39373e-006	0	
2.58801e-006	4.28569e-006	0	
1.51762e-006	4.07257e-006	0	
1.40798e-006	4.03728e-006	0	
1.00178e-007	3.91965e-006	0	
2.96921e-007	4.50618e-006	0	
-8.8916e-007	4.31159e-006	0	
-4.61113e-008	4.4315e-006	0	
-5.68348e-007	4.81985e-006	0	
-1.11061e-007	4.92786e-006	0	
-3.75603e-007	4.976e-006	0	
-8.83778e-008	5.16546e-006	0	
-2.15773e-007	5.07413e-006	0	
-7.1637e-008	5.24659e-006	0	
-1.19396e-007	5.16441e-006	0	
-3.57851e-008	5.28337e-006	0	
-3.84919e-008	5.20377e-006	0	
7.82791e-014	5.29485e-006	0	
3.8492e-008	5.20377e-006	0	
3.57852e-008	5.28337e-006	0	
1.19396e-007	5.16441e-006	0	
7.16372e-008	5.24659e-006	0	
2.15773e-007	5.07413e-006	0	
8.8378e-008	5.16546e-006	0	
3.75603e-007	4.97599e-006	0	
1.11061e-007	4.92786e-006	0	
5.68348e-007	4.81985e-006	0	
4.61114e-008	4.4315e-006	0	
8.8916e-007	4.31159e-006	0	
-2.96921e-007	4.50618e-006	0	
-1.00178e-007	3.91965e-006	0	
-1.40798e-006	4.03728e-006	0	
-1.51762e-006	4.07257e-006	0	
-2.58801e-006	4.28569e-006	0	
-2.76101e-006	4.39373e-006	0	
-4.0715e-006	5.04611e-006	0	
-4.699e-006	5.29805e-006	0	
-6.69317e-006	6.28309e-006	0	
7.68824e-006	7.67077e-006	0	
6.59314e-006	7.39482e-006	0	
4.82744e-006	6.60535e-006	0	
4.29132e-006	6.42627e-006	0	
2.94068e-006	5.98658e-006	0	
2.65749e-006	5.91491e-006	0	
1.46282e-006	5.77208e-006	0	
1.11187e-006	5.78586e-006	0	
-2.97976e-007	5.40286e-006	0	
4.93832e-008	5.92008e-006	0	
-9.36518e-007	6.34716e-006	0	
-2.64029e-007	6.45517e-006	0	
-6.57027e-007	6.59402e-006	0	
-1.77102e-007	6.84456e-006	0	
-3.57303e-007	6.68103e-006	0	
-1.52559e-007	6.96327e-006	0	
-2.23176e-007	6.83359e-006	0	
-8.51337e-008	7.02162e-006	0	
-1.07886e-007	6.90727e-006	0	
-2.59098e-008	7.04854e-006	0	
-8.62036e-014	6.92684e-006	0	
2.59097e-008	7.04854e-006	0	
1.07886e-007	6.90727e-006	0	
8.51337e-008	7.02162e-006	0	
2.23176e-007	6.83359e-006	0	
1.52559e-007	6.96327e-006	0	
3.57303e-007	6.68103e-006	0	
1.77102e-007	6.84456e-006	0	
6.57027e-007	6.59402e-006	0	
2.64029e-007	6.45517e-006	0	
9.36518e-007	6.34716e-006	0	
-4.93832e-008	5.92008e-006	0	
2.97976e-007	5.40286e-006	0	
-1.11187e-006	5.78586e-006	0	
-1.46282e-006	5.77208e-006	0	
-2.65749e-006	5.91491e-006	0	
-2.94068e-006	5.98658e-006	0	
-4.29132e-006	6.42627e-006	0	
-4.82744e-006	6.60535e-006	0	
-6.59314e-006	7.39482e-006	0	
-7.68824e-006	7.67077e-006	0	
9.49314e-006	9.70613e-006	0	
7.387e-006	8.90548e-006	0	
6.47217e-006	8.68513e-006	0	
4.79259e-006	8.08901e-006	0	
4.23961e-006	7.98295e-006	0	
2.87097e-006	7.6872e-006	0	
2.42635e-006	7.70677e-006	0	
1.25859e-006	7.55834e-006	0	
6.01947e-007	7.75687e-006	0	
9.21154e-008	8.01003e-006	0	
-5.88456e-007	7.97326e-006	0	
-1.04992e-006	8.32798e-006	0	
-3.17444e-007	8.53064e-006	0	
-5.11648e-007	8.23713e-006	0	
-2.84032e-007	8.67944e-006	0	
-3.60959e-007	8.48276e-006	0	
-1.6648e-007	8.75343e-006	0	
-2.1014e-007	8.59864e-006	0	
-7.0228e-008	8.79456e-006	0	
-6.86086e-008	8.6378e-006	0	
6.36783e-014	8.80917e-006	0	
6.86087e-008	8.6378e-006	0	
7.02281e-008	8.79456e-006	0	
2.1014e-007	8.59864e-006	0	
1.6648e-007	8.75343e-006	0	
3.60959e-007	8.48276e-006	0	
2.84032e-007	8.67944e-006	0	
5.11648e-007	8.23713e-006	0	
3.17444e-007	8.53064e-006	0	
1.04992e-006	8.32798e-006	0	
5.88456e-007	7.97326e-006	0	
-9.21153e-008	8.01003e-006	0	
-6.01947e-007	7.75687e-006	0	
-1.25859e-006	7.55834e-006	0	
-2.42635e-006	7.70677e-006	0	
-2.87097e-006	7.6872e-006	0	
-4.23961e-006	7.98295e-006	0	
-4.79259e-006	8.08901e-006	0	
-6.47217e-006	8.68513e-006	0	
-7.387e-006	8.90548e-006	0	
-9.49314e-006	9.70613e-006	0	
1.0255e-005	1.12059e-005	0	
9.04266e-006	1.09634e-005	0	
7.06137e-006	1.02882e-005	0	
6.2024e-006	1.0143e-005	0	
4.56287e-006	9.70594e-006	0	
3.94706e-006	9.69995e-006	0	
2.59625e-006	9.47258e-006	0	
2.03356e-006	9.62861e-006	0	
9.04051e-007	9.43915e-006	0	
3.37056e-007	9.46638e-006	0	
-4.54666e-007	9.88119e-006	0	
-6.56385e-007	1.00871e-005	0	
-6.10995e-007	9.74031e-006	0	
-4.68826e-007	1.04238e-005	0	
-5.35572e-007	1.01225e-005	0	
-2.86387e-007	1.04911e-005	0	
-3.48544e-007	1.0289e-005	0	
-1.3387e-007	1.05355e-005	0	
-1.68065e-007	1.03391e-005	0	
-4.13728e-008	1.05652e-005	0	
-5.07933e-014	1.0355e-005	0	
4.13728e-008	1.05652e-005	0	
1.68065e-007	1.03391e-005	0	
1.3387e-007	1.05355e-005	0	
3.48543e-007	1.0289e-005	0	
2.86387e-007	1.04911e-005	0	
5.35572e-007	1.01225e-005	0	
4.68826e-007	1.04238e-005	0	
6.10995e-007	9.74031e-006	0	
6.56385e-007	1.00871e-005	0	
4.54666e-007	9.88119e-006	0	
-3.37056e-007	9.46638e-006	0	
-9.04051e-007	9.43915e-006	0	
-2.03356e-006	9.62861e-006	0	
-2.59625e-006	9.47258e-006	0	
-3.94706e-006	9.69995e-006	0	
-4.56287e-006	9.70594e-006	0	
-6.2024e-006	1.0143e-005	0	
-7.06137e-006	1.02882e-005	0	
-9.04266e-006	1.09634e-005	0	
-1.0255e-005	1.12059e-005	0	
1.18797e-005	1.32354e-005	0	
9.67232e-006	1.25352e-005	0	
8.53827e-006	1.23458e-005	0	
6.60933e-006	1.17995e-005	0	
5.74684e-006	1.17511e-005	0	
4.14148e-006	1.14305e-005	0	
3.50942e-006	1.15271e-005	0	
2.15552e-006	1.13165e-005	0	
1.75173e-006	1.14431e-005	0	
4.08441e-007	1.13128e-005	0	
-8.73228e-008	1.12172e-005	0	
-6.34645e-007	1.13695e-005	0	
-5.82457e-007	1.23078e-005	0	
-7.67342e-007	1.17634e-005	0	
-4.4071e-007	1.22699e-005	0	
-5.29143e-007	1.19964e-005	0	
-2.07999e-007	1.22731e-005	0	
-3.0126e-007	1.20349e-005	0	
-9.92603e-008	1.23204e-005	0	
-9.21075e-008	1.2063e-005	0	
4.66751e-015	1.23282e-005	0	
9.21074e-008	1.2063e-005	0	
9.92604e-008	1.23204e-005	0	
3.0126e-007	1.20349e-005	0	
2.07999e-007	1.22731e-005	0	
5.29143e-007	1.19964e-005	0	
4.40711e-007	1.22699e-005	0	
7.67342e-007	1.17634e-005	0	
5.82457e-007	1.23078e-005	0	
6.34645e-007	1.13695e-005	0	
8.73228e-008	1.12172e-005	0	
-4.08441e-007	1.13128e-005	0	
-1.75173e-006	1.14431e-005	0	
-2.15552e-006	1.13165e-005	0	
-3.50942e-006	1.15271e-005	0	
-4.14148e-006	1.14305e-005	0	
-5.74684e-006	1.17511e-005	0	
-6.60933e-006	1.17995e-005	0	
-8.53827e-006	1.23458e-005	0	
-9.67232e-006	1.25352e-005	0	
-1.18797e-005	1.32354e-005	0	
1.25205e-005	1.48244e-005	0	
1.11967e-005	1.45922e-005	0	
9.01819e-006	1.39653e-005	0	
7.89053e-006	1.38533e-005	0	
5.98608e-006	1.34233e-005	0	
5.13673e-006	1.34732e-005	0	
3.58039e-006	1.32475e-005	0	
3.07919e-006	1.33566e-005	0	
1.69769e-006	1.32295e-005	0	
1.42968e-006	1.33259e-005	0	
-1.01906e-007	1.32314e-005	0	
3.32426e-007	1.38995e-005	0	
-1.1156e-006	1.33547e-005	0	
-5.8562e-007	1.41925e-005	0	
-7.67201e-007	1.37271e-005	0	
-2.69871e-007	1.39984e-005	0	
-4.7773e-007	1.37304e-005	0	
-1.69496e-007	1.40832e-005	0	
-2.01927e-007	1.37564e-005	0	
-6.45002e-008	1.40873e-005	0	
1.13616e-014	1.3788e-005	0	
6.45004e-008	1.40873e-005	0	
2.01927e-007	1.37564e-005	0	
1.69496e-007	1.40832e-005	0	
4.7773e-007	1.37304e-005	0	
2.69871e-007	1.39984e-005	0	
7.67201e-007	1.37271e-005	0	
5.8562e-007	1.41925e-005	0	
1.1156e-006	1.33547e-005	0	
-3.32426e-007	1.38995e-005	0	
1.01906e-007	1.32314e-005	0	
-1.42968e-006	1.33259e-005	0	
-1.69769e-006	1.32295e-005	0	
-3.07919e-006	1.33566e-005	0	
-3.58039e-006	1.32475e-005	0	
-5.13673e-006	1.34732e-005	0	
-5.98608e-006	1.34233e-005	0	
-7.89053e-006	1.38533e-005	0	
-9.01819e-006	1.39653e-005	0	
-1.11967e-005	1.45922e-005	0	
-1.25205e-005	1.48244e-005	0	
1.40671e-005	1.68982e-005	0	
1.17376e-005	1.62505e-005	0	
1.04192e-005	1.60551e-005	0	
8.21666e-006	1.54809e-005	0	
7.05742e-006	1.54578e-005	0	
5.19984e-006	1.51566e-005	0	
4.46981e-006	1.52583e-005	0	
3.03588e-006	1.51359e-005	0	
2.67152e-006	1.51933e-005	0	
1.30726e-006	1.50896e-005	0	
1.06632e-006	1.51872e-005	0	
-3.17895e-007	1.47429e-005	0	
-7.01653e-008	1.56798e-005	0	
-1.12171e-006	1.53268e-005	0	
-2.98675e-007	1.56627e-005	0	
-7.13607e-007	1.54411e-005	0	
-2.44548e-007	1.58641e-005	0	
-3.1788e-007	1.54182e-005	0	
-1.59594e-007	1.58511e-005	0	
-1.01812e-007	1.55059e-005	0	
-5.51537e-014	1.58446e-005	0	
1.01812e-007	1.55059e-005	0	
1.59594e-007	1.58511e-005	0	
3.1788e-007	1.54182e-005	0	
2.44548e-007	1.58641e-005	0	
7.13607e-007	1.54411e-005	0	
2.98675e-007	1.56627e-005	0	
1.12171e-006	1.53268e-005	0	
7.01654e-008	1.56798e-005	0	
3.17895e-007	1.47429e-005	0	
-1.06632e-006	1.51872e-005	0	
-1.30726e-006	1.50896e-005	0	
-2.67152e-006	1.51933e-005	0	
-3.03588e-006	1.51359e-005	0	
-4.46981e-006	1.52583e-005	0	
-5.19984e-006	1.51566e-005	0	
-7.05742e-006	1.54578e-005	0	
-8.21666e-006	1.54809e-005	0	
-1.04192e-005	1.60551e-005	0	
-1.17376e-005	1.62505e-005	0	
-1.40671e-005	1.68982e-005	0	
1.46598e-005	1.8632e-005	0	
1.31932e-005	1.83881e-005	0	
1.0856e-005	1.77779e-005	0	
9.50602e-006	1.76117e-005	0	
7.19754e-006	1.70519e-005	0	
6.01646e-006	1.71214e-005	0	
4.38594e-006	1.69947e-005	0	
3.92399e-006	1.70455e-005	0	
2.65865e-006	1.69306e-005	0	
2.25637e-006	1.69827e-005	0	
1.12775e-006	1.67347e-005	0	
5.69034e-007	1.70435e-005	0	
-4.02599e-007	1.65181e-005	0	
-4.57545e-007	1.71676e-005	0	
-9.8431e-007	1.72604e-005	0	
-3.52911e-007	1.7654e-005	0	
-4.03508e-007	1.70236e-005	0	
-2.8956e-007	1.76252e-005	0	
-2.11392e-007	1.72011e-005	0	
-1.06398e-007	1.76017e-005	0	
5.42751e-014	1.72665e-005	0	
1.06398e-007	1.76017e-005	0	
2.11392e-007	1.72011e-005	0	
2.8956e-007	1.76252e-005	0	
4.03508e-007	1.70236e-005	0	
3.52911e-007	1.7654e-005	0	
9.8431e-007	1.72604e-005	0	
4.57545e-007	1.71676e-005	0	
4.02599e-007	1.65181e-005	0	
-5.69034e-007	1.70435e-005	0	
-1.12775e-006	1.67347e-005	0	
-2.25637e-006	1.69827e-005	0	
-2.65865e-006	1.69306e-005	0	
-3.92399e-006	1.70455e-005	0	
-4.38594e-006	1.69947e-005	0	
-6.01646e-006	1.71214e-005	0	
-7.19754e-006	1.70519e-005	0	
-9.50602e-006	1.76117e-005	0	
-1.0856e-005	1.77779e-005	0	
-1.31932e-005	1.83881e-005	0	
-1.46598e-005	1.8632e-005	0	
1.6137e-005	2.08053e-005	0	
1.36949e-005	2.02112e-005	0	
1.22209e-005	2.00004e-005	0	
9.86093e-006	1.94047e-005	0	
8.37756e-006	1.92631e-005	0	
5.84126e-006	1.87079e-005	0	
5.09173e-006	1.87792e-005	0	
3.94016e-006	1.87339e-005	0	
3.51082e-006	1.87752e-005	0	
2.4033e-006	1.85901e-005	0	
1.82354e-006	1.88367e-005	0	
9.38664e-007	1.84056e-005	0	
1.01539e-007	1.88078e-005	0	
-2.12846e-007	1.88514e-005	0	
-7.28794e-007	1.92436e-005	0	
-3.70786e-007	1.856e-005	0	
-4.57904e-007	1.94105e-005	0	
-3.28868e-007	1.88671e-005	0	
-2.47479e-007	1.93723e-005	0	
-1.16485e-007	1.90113e-005	0	
-7.40077e-014	1.93457e-005	0	
1.16485e-007	1.90113e-005	0	
2.47479e-007	1.93723e-005	0	
3.28868e-007	1.88671e-005	0	
4.57904e-007	1.94105e-005	0	
3.70785e-007	1.856e-005	0	
7.28794e-007	1.92436e-005	0	
2.12846e-007	1.88514e-005	0	
-1.01539e-007	1.88078e-005	0	
-9.38664e-007	1.84056e-005	0	
-1.82354e-006	1.88367e-005	0	
-2.4033e-006	1.85901e-005	0	
-3.51082e-006	1.87752e-005	0	
-3.94016e-006	1.87339e-005	0	
-5.09173e-006	1.87792e-005	0	
-5.84126e-006	1.87079e-005	0	
-8.37756e-006	1.92631e-005	0	
-9.86093e-006	1.94047e-005	0	
-1.22209e-005	2.00004e-005	0	
-1.36949e-005	2.02112e-005	0	
-1.6137e-005	2.08053e-005	0	
1.66904e-005	2.27195e-005	0	
1.50654e-005	2.24729e-005	0	
1.26645e-005	2.19003e-005	0	
1.11395e-005	2.17306e-005	0	
8.68393e-006	2.11554e-005	0	
6.98545e-006	2.10532e-005	0	
5.00237e-006	2.04396e-005	0	
4.73636e-006	2.04906e-005	0	
3.66007e-006	2.04115e-005	0	
3.05851e-006	2.06106e-005	0	
2.1768e-006	2.02364e-005	0	
1.47308e-006	2.06227e-005	0	
6.15192e-007	2.0107e-005	0	
-3.07746e-007	2.02161e-005	0	
-2.54945e-007	2.01798e-005	0	
-5.49679e-007	2.12636e-005	0	
-4.69981e-007	2.051e-005	0	
-4.14275e-007	2.11779e-005	0	
-2.65993e-007	2.07493e-005	0	
-1.12473e-007	2.10988e-005	0	
5.13284e-014	2.07785e-005	0	
1.12473e-007	2.10988e-005	0	
2.65993e-007	2.07493e-005	0	
4.14275e-007	2.11779e-005	0	
4.69981e-007	2.051e-005	0	
5.49679e-007	2.12636e-005	0	
2.54945e-007	2.01798e-005	0	
3.07747e-007	2.02161e-005	0	
-6.15192e-007	2.0107e-005	0	
-1.47308e-006	2.06227e-005	0	
-2.1768e-006	2.02364e-005	0	
-3.05851e-006	2.06106e-005	0	
-3.66007e-006	2.04115e-005	0	
-4.73636e-006	2.04906e-005	0	
-5.00237e-006	2.04396e-005	0	
-6.98545e-006	2.10532e-005	0	
-8.68393e-006	2.11554e-005	0	
-1.11395e-005	2.17306e-005	0	
-1.26645e-005	2.19003e-005	0	
-1.50654e-005	2.24729e-005	0	
-1.66904e-005	2.27195e-005	0	
1.8024e-005	2.49686e-005	0	
1.55585e-005	2.44428e-005	0	
1.39474e-005	2.42446e-005	0	
1.15601e-005	2.36797e-005	0	
9.90335e-006	2.35578e-005	0	
7.42021e-006	2.29317e-005	0	
5.41361e-006	2.20437e-005	0	
5.05407e-006	2.23428e-005	0	
4.19499e-006	2.23235e-005	0	
3.4474e-006	2.20338e-005	0	
2.69388e-006	2.23767e-005	0	
1.87565e-006	2.19536e-005	0	
1.24236e-006	2.23313e-005	0	
1.5368e-007	2.19802e-005	0	
3.39295e-007	2.28176e-005	0	
-7.14699e-007	2.21249e-005	0	
-5.47616e-007	2.31364e-005	0	
-4.4609e-007	2.24795e-005	0	
-2.04003e-007	2.28149e-005	0	
-1.99984e-007	2.25215e-005	0	
-4.07056e-014	2.28915e-005	0	
1.99984e-007	2.25215e-005	0	
2.04003e-007	2.28149e-005	0	
4.4609e-007	2.24795e-005	0	
5.47616e-007	2.31364e-005	0	
7.14698e-007	2.21249e-005	0	
-3.39295e-007	2.28176e-005	0	
-1.5368e-007	2.19802e-005	0	
-1.24236e-006	2.23313e-005	0	
-1.87566e-006	2.19536e-005	0	
-2.69388e-006	2.23767e-005	0	
-3.4474e-006	2.20338e-005	0	
-4.19499e-006	2.23235e-005	0	
-5.05407e-006	2.23428e-005	0	
-5.41361e-006	2.20437e-005	0	
-7.42021e-006	2.29317e-005	0	
-9.90335e-006	2.35578e-005	0	
-1.15601e-005	2.36797e-005	0	
-1.39474e-005	2.42446e-005	0	
-1.55585e-005	2.44428e-005	0	
-1.8024e-005	2.49686e-005	0	
1.85384e-005	2.69832e-005	0	
1.67947e-005	2.67521e-005	0	
1.44289e-005	2.62279e-005	0	
1.27797e-005	2.60785e-005	0	
1.03917e-005	2.54743e-005	0	
8.65005e-006	2.53767e-005	0	
6.35904e-006	2.43778e-005	0	
4.94089e-006	2.35638e-005	0	
4.7433e-006	2.37987e-005	0	
3.82844e-006	2.40856e-005	0	
3.15482e-006	2.37465e-005	0	
2.41023e-006	2.40901e-005	0	
1.53324e-006	2.37628e-005	0	
9.97633e-007	2.40713e-005	0	
5.60938e-008	2.34739e-005	0	
-4.51244e-008	2.45511e-005	0	
-7.00656e-007	2.40112e-005	0	
-2.28916e-007	2.44346e-005	0	
-4.71196e-007	2.42564e-005	0	
-1.32209e-007	2.4668e-005	0	
1.6147e-014	2.42544e-005	0	
1.3221e-007	2.4668e-005	0	
4.71196e-007	2.42564e-005	0	
2.28916e-007	2.44346e-005	0	
7.00655e-007	2.40112e-005	0	
4.51245e-008	2.45511e-005	0	
-5.60939e-008	2.34739e-005	0	
-9.97633e-007	2.40713e-005	0	
-1.53324e-006	2.37628e-005	0	
-2.41023e-006	2.40901e-005	0	
-3.15482e-006	2.37465e-005	0	
-3.82844e-006	2.40856e-005	0	
-4.7433e-006	2.37987e-005	0	
-4.94089e-006	2.35638e-005	0	
-6.35904e-006	2.43778e-005	0	
-8.65005e-006	2.53767e-005	0	
-1.03917e-005	2.54743e-005	0	
-1.27797e-005	2.60785e-005	0	
-1.44289e-005	2.62279e-005	0	
-1.67947e-005	2.67521e-005	0	
-1.85384e-005	2.69832e-005	0	
1.96877e-005	2.92151e-005	0	
1.73114e-005	2.87425e-005	0	
1.55874e-005	2.85645e-005	0	
1.33026e-005	2.80285e-005	0	
1.16135e-005	2.79148e-005	0	
9.26309e-006	2.72295e-005	0	
8.80106e-006	2.70855e-005	0	
5.37239e-006	2.54399e-005	0	
5.01911e-006	2.58597e-005	0	
4.40284e-006	2.55197e-005	0	
3.57072e-006	2.58299e-005	0	
2.82678e-006	2.55181e-005	0	
2.1203e-006	2.57803e-005	0	
1.40528e-006	2.5374e-005	0	
6.0882e-007	2.58348e-005	0	
-1.1329e-007	2.51128e-005	0	
-2.74429e-007	2.59796e-005	0	
-6.45252e-007	2.60463e-005	0	
-3.51492e-007	2.63278e-005	0	
-3.16076e-007	2.59773e-005	0	
1.4843e-014	2.65418e-005	0	
3.16076e-007	2.59773e-005	0	
3.51492e-007	2.63278e-005	0	
6.45251e-007	2.60463e-005	0	
2.74429e-007	2.59796e-005	0	
1.1329e-007	2.51128e-005	0	
-6.0882e-007	2.58348e-005	0	
-1.40528e-006	2.5374e-005	0	
-2.1203e-006	2.57803e-005	0	
-2.82678e-006	2.55181e-005	0	
-3.57072e-006	2.58299e-005	0	
-4.40284e-006	2.55197e-005	0	
-5.01911e-006	2.58597e-005	0	
-5.37239e-006	2.54399e-005	0	
-8.80106e-006	2.70855e-005	0	
-9.26309e-006	2.72295e-005	0	
-1.16135e-005	2.79148e-005	0	
-1.33026e-005	2.80285e-005	0	
-1.55874e-005	2.85645e-005	0	
-1.73114e-005	2.87425e-005	0	
-1.96877e-005	2.92151e-005	0	
2.02106e-005	3.12085e-005	0	
1.84022e-005	3.09919e-005	0	
1.61318e-005	3.04936e-005	0	
1.44021e-005	3.03724e-005	0	
1.22435e-005	2.98039e-005	0	
1.05659e-005	2.97141e-005	0	
1.01756e-005	2.95833e-005	0	
6.46348e-006	2.76848e-005	0	
5.07926e-006	2.69451e-005	0	
4.91037e-006	2.77143e-005	0	
4.00853e-006	2.72661e-005	0	
3.34761e-006	2.75009e-005	0	
2.60822e-006	2.71528e-005	0	
1.77553e-006	2.75736e-005	0	
1.25051e-006	2.70577e-005	0	
1.86801e-007	2.76377e-005	0	
2.66653e-007	2.7526e-005	0	
-8.32356e-007	2.77904e-005	0	
-5.77865e-007	2.78694e-005	0	
-2.46417e-007	2.82604e-005	0	
-2.65933e-014	2.75342e-005	0	
2.46417e-007	2.82604e-005	0	
5.77865e-007	2.78694e-005	0	
8.32356e-007	2.77904e-005	0	
-2.66654e-007	2.7526e-005	0	
-1.86801e-007	2.76377e-005	0	