# vtk DataFile Version 4.1
vtk output
ASCII
DATASET UNSTRUCTURED_GRID

POINTS	2501	float
0	0	0	
0	1	0	
0	2	0	
0	3	0	
0	4	0	
0	5	0	
0	6	0	
0	7	0	
0	8	0	
0	9	0	
0	10	0	
0	11	0	
0	12	0	
0	13	0	
0	14	0	
0	15	0	
0	16	0	
0	17	0	
0	18	0	
0	19	0	
0	20	0	
0	21	0	
0	22	0	
0	23	0	
0	24	0	
0	25	0	
0	26	0	
0	27	0	
0	28	0	
0	29	0	
0	30	0	
0	31	0	
0	32	0	
0	33	0	
0	34	0	
0	35	0	
0	36	0	
0	37	0	
0	38	0	
0	39	0	
0	40	0	
1	0	0	
1	1	0	
1	2	0	
1	3	0	
1	4	0	
1	5	0	
1	6	0	
1	7	0	
1	8	0	
1	9	0	
1	10	0	
1	11	0	
1	12	0	
1	13	0	
1	14	0	
1	15	0	
1	16	0	
1	17	0	
1	18	0	
1	19	0	
1	20	0	
1	21	0	
1	22	0	
1	23	0	
1	24	0	
1	25	0	
1	26	0	
1	27	0	
1	28	0	
1	29	0	
1	30	0	
1	31	0	
1	32	0	
1	33	0	
1	34	0	
1	35	0	
1	36	0	
1	37	0	
1	38	0	
1	39	0	
1	40	0	
2	0	0	
2	1	0	
2	2	0	
2	3	0	
2	4	0	
2	5	0	
2	6	0	
2	7	0	
2	8	0	
2	9	0	
2	10	0	
2	11	0	
2	12	0	
2	13	0	
2	14	0	
2	15	0	
2	16	0	
2	17	0	
2	18	0	
2	19	0	
2	20	0	
2	21	0	
2	22	0	
2	23	0	
2	24	0	
2	25	0	
2	26	0	
2	27	0	
2	28	0	
2	29	0	
2	30	0	
2	31	0	
2	32	0	
2	33	0	
2	34	0	
2	35	0	
2	36	0	
2	37	0	
2	38	0	
2	39	0	
2	40	0	
3	0	0	
3	1	0	
3	2	0	
3	3	0	
3	4	0	
3	5	0	
3	6	0	
3	7	0	
3	8	0	
3	9	0	
3	10	0	
3	11	0	
3	12	0	
3	13	0	
3	14	0	
3	15	0	
3	16	0	
3	17	0	
3	18	0	
3	19	0	
3	20	0	
3	21	0	
3	22	0	
3	23	0	
3	24	0	
3	25	0	
3	26	0	
3	27	0	
3	28	0	
3	29	0	
3	30	0	
3	31	0	
3	32	0	
3	33	0	
3	34	0	
3	35	0	
3	36	0	
3	37	0	
3	38	0	
3	39	0	
3	40	0	
4	0	0	
4	1	0	
4	2	0	
4	3	0	
4	4	0	
4	5	0	
4	6	0	
4	7	0	
4	8	0	
4	9	0	
4	10	0	
4	11	0	
4	12	0	
4	13	0	
4	14	0	
4	15	0	
4	16	0	
4	17	0	
4	18	0	
4	19	0	
4	20	0	
4	21	0	
4	22	0	
4	23	0	
4	24	0	
4	25	0	
4	26	0	
4	27	0	
4	28	0	
4	29	0	
4	30	0	
4	31	0	
4	32	0	
4	33	0	
4	34	0	
4	35	0	
4	36	0	
4	37	0	
4	38	0	
4	39	0	
4	40	0	
5	0	0	
5	1	0	
5	2	0	
5	3	0	
5	4	0	
5	5	0	
5	6	0	
5	7	0	
5	8	0	
5	9	0	
5	10	0	
5	11	0	
5	12	0	
5	13	0	
5	14	0	
5	15	0	
5	16	0	
5	17	0	
5	18	0	
5	19	0	
5	20	0	
5	21	0	
5	22	0	
5	23	0	
5	24	0	
5	25	0	
5	26	0	
5	27	0	
5	28	0	
5	29	0	
5	30	0	
5	31	0	
5	32	0	
5	33	0	
5	34	0	
5	35	0	
5	36	0	
5	37	0	
5	38	0	
5	39	0	
5	40	0	
6	0	0	
6	1	0	
6	2	0	
6	3	0	
6	4	0	
6	5	0	
6	6	0	
6	7	0	
6	8	0	
6	9	0	
6	10	0	
6	11	0	
6	12	0	
6	13	0	
6	14	0	
6	15	0	
6	16	0	
6	17	0	
6	18	0	
6	19	0	
6	20	0	
6	21	0	
6	22	0	
6	23	0	
6	24	0	
6	25	0	
6	26	0	
6	27	0	
6	28	0	
6	29	0	
6	30	0	
6	31	0	
6	32	0	
6	33	0	
6	34	0	
6	35	0	
6	36	0	
6	37	0	
6	38	0	
6	39	0	
6	40	0	
7	0	0	
7	1	0	
7	2	0	
7	3	0	
7	4	0	
7	5	0	
7	6	0	
7	7	0	
7	8	0	
7	9	0	
7	10	0	
7	11	0	
7	12	0	
7	13	0	
7	14	0	
7	15	0	
7	16	0	
7	17	0	
7	18	0	
7	19	0	
7	20	0	
7	21	0	
7	22	0	
7	23	0	
7	24	0	
7	25	0	
7	26	0	
7	27	0	
7	28	0	
7	29	0	
7	30	0	
7	31	0	
7	32	0	
7	33	0	
7	34	0	
7	35	0	
7	36	0	
7	37	0	
7	38	0	
7	39	0	
7	40	0	
8	0	0	
8	1	0	
8	2	0	
8	3	0	
8	4	0	
8	5	0	
8	6	0	
8	7	0	
8	8	0	
8	9	0	
8	10	0	
8	11	0	
8	12	0	
8	13	0	
8	14	0	
8	15	0	
8	16	0	
8	17	0	
8	18	0	
8	19	0	
8	20	0	
8	21	0	
8	22	0	
8	23	0	
8	24	0	
8	25	0	
8	26	0	
8	27	0	
8	28	0	
8	29	0	
8	30	0	
8	31	0	
8	32	0	
8	33	0	
8	34	0	
8	35	0	
8	36	0	
8	37	0	
8	38	0	
8	39	0	
8	40	0	
9	0	0	
9	1	0	
9	2	0	
9	3	0	
9	4	0	
9	5	0	
9	6	0	
9	7	0	
9	8	0	
9	9	0	
9	10	0	
9	11	0	
9	12	0	
9	13	0	
9	14	0	
9	15	0	
9	16	0	
9	17	0	
9	18	0	
9	19	0	
9	20	0	
9	21	0	
9	22	0	
9	23	0	
9	24	0	
9	25	0	
9	26	0	
9	27	0	
9	28	0	
9	29	0	
9	30	0	
9	31	0	
9	32	0	
9	33	0	
9	34	0	
9	35	0	
9	36	0	
9	37	0	
9	38	0	
9	39	0	
9	40	0	
10	0	0	
10	1	0	
10	2	0	
10	3	0	
10	4	0	
10	5	0	
10	6	0	
10	7	0	
10	8	0	
10	9	0	
10	10	0	
10	11	0	
10	12	0	
10	13	0	
10	14	0	
10	15	0	
10	16	0	
10	17	0	
10	18	0	
10	19	0	
10	20	0	
10	21	0	
10	22	0	
10	23	0	
10	24	0	
10	25	0	
10	26	0	
10	27	0	
10	28	0	
10	29	0	
10	30	0	
10	31	0	
10	32	0	
10	33	0	
10	34	0	
10	35	0	
10	36	0	
10	37	0	
10	38	0	
10	39	0	
10	40	0	
11	0	0	
11	1	0	
11	2	0	
11	3	0	
11	4	0	
11	5	0	
11	6	0	
11	7	0	
11	8	0	
11	9	0	
11	10	0	
11	11	0	
11	12	0	
11	13	0	
11	14	0	
11	15	0	
11	16	0	
11	17	0	
11	18	0	
11	19	0	
11	20	0	
11	21	0	
11	22	0	
11	23	0	
11	24	0	
11	25	0	
11	26	0	
11	27	0	
11	28	0	
11	29	0	
11	30	0	
11	31	0	
11	32	0	
11	33	0	
11	34	0	
11	35	0	
11	36	0	
11	37	0	
11	38	0	
11	39	0	
11	40	0	
12	0	0	
12	1	0	
12	2	0	
12	3	0	
12	4	0	
12	5	0	
12	6	0	
12	7	0	
12	8	0	
12	9	0	
12	10	0	
12	11	0	
12	12	0	
12	13	0	
12	14	0	
12	15	0	
12	16	0	
12	17	0	
12	18	0	
12	19	0	
12	20	0	
12	21	0	
12	22	0	
12	23	0	
12	24	0	
12	25	0	
12	26	0	
12	27	0	
12	28	0	
12	29	0	
12	30	0	
12	31	0	
12	32	0	
12	33	0	
12	34	0	
12	35	0	
12	36	0	
12	37	0	
12	38	0	
12	39	0	
12	40	0	
13	0	0	
13	1	0	
13	2	0	
13	3	0	
13	4	0	
13	5	0	
13	6	0	
13	7	0	
13	8	0	
13	9	0	
13	10	0	
13	11	0	
13	12	0	
13	13	0	
13	14	0	
13	15	0	
13	16	0	
13	17	0	
13	18	0	
13	19	0	
13	20	0	
13	21	0	
13	22	0	
13	23	0	
13	24	0	
13	25	0	
13	26	0	
13	27	0	
13	28	0	
13	29	0	
13	30	0	
13	31	0	
13	32	0	
13	33	0	
13	34	0	
13	35	0	
13	36	0	
13	37	0	
13	38	0	
13	39	0	
13	40	0	
14	0	0	
14	1	0	
14	2	0	
14	3	0	
14	4	0	
14	5	0	
14	6	0	
14	7	0	
14	8	0	
14	9	0	
14	10	0	
14	11	0	
14	12	0	
14	13	0	
14	14	0	
14	15	0	
14	16	0	
14	17	0	
14	18	0	
14	19	0	
14	20	0	
14	21	0	
14	22	0	
14	23	0	
14	24	0	
14	25	0	
14	26	0	
14	27	0	
14	28	0	
14	29	0	
14	30	0	
14	31	0	
14	32	0	
14	33	0	
14	34	0	
14	35	0	
14	36	0	
14	37	0	
14	38	0	
14	39	0	
14	40	0	
15	0	0	
15	1	0	
15	2	0	
15	3	0	
15	4	0	
15	5	0	
15	6	0	
15	7	0	
15	8	0	
15	9	0	
15	10	0	
15	11	0	
15	12	0	
15	13	0	
15	14	0	
15	15	0	
15	16	0	
15	17	0	
15	18	0	
15	19	0	
15	20	0	
15	21	0	
15	22	0	
15	23	0	
15	24	0	
15	25	0	
15	26	0	
15	27	0	
15	28	0	
15	29	0	
15	30	0	
15	31	0	
15	32	0	
15	33	0	
15	34	0	
15	35	0	
15	36	0	
15	37	0	
15	38	0	
15	39	0	
15	40	0	
16	0	0	
16	1	0	
16	2	0	
16	3	0	
16	4	0	
16	5	0	
16	6	0	
16	7	0	
16	8	0	
16	9	0	
16	10	0	
16	11	0	
16	12	0	
16	13	0	
16	14	0	
16	15	0	
16	16	0	
16	17	0	
16	18	0	
16	19	0	
16	20	0	
16	21	0	
16	22	0	
16	23	0	
16	24	0	
16	25	0	
16	26	0	
16	27	0	
16	28	0	
16	29	0	
16	30	0	
16	31	0	
16	32	0	
16	33	0	
16	34	0	
16	35	0	
16	36	0	
16	37	0	
16	38	0	
16	39	0	
16	40	0	
17	0	0	
17	1	0	
17	2	0	
17	3	0	
17	4	0	
17	5	0	
17	6	0	
17	7	0	
17	8	0	
17	9	0	
17	10	0	
17	11	0	
17	12	0	
17	13	0	
17	14	0	
17	15	0	
17	16	0	
17	17	0	
17	18	0	
17	19	0	
17	20	0	
17	21	0	
17	22	0	
17	23	0	
17	24	0	
17	25	0	
17	26	0	
17	27	0	
17	28	0	
17	29	0	
17	30	0	
17	31	0	
17	32	0	
17	33	0	
17	34	0	
17	35	0	
17	36	0	
17	37	0	
17	38	0	
17	39	0	
17	40	0	
18	0	0	
18	1	0	
18	2	0	
18	3	0	
18	4	0	
18	5	0	
18	6	0	
18	7	0	
18	8	0	
18	9	0	
18	10	0	
18	11	0	
18	12	0	
18	13	0	
18	14	0	
18	15	0	
18	16	0	
18	17	0	
18	18	0	
18	19	0	
18	20	0	
18	21	0	
18	22	0	
18	23	0	
18	24	0	
18	25	0	
18	26	0	
18	27	0	
18	28	0	
18	29	0	
18	30	0	
18	31	0	
18	32	0	
18	33	0	
18	34	0	
18	35	0	
18	36	0	
18	37	0	
18	38	0	
18	39	0	
18	40	0	
19	0	0	
19	1	0	
19	2	0	
19	3	0	
19	4	0	
19	5	0	
19	6	0	
19	7	0	
19	8	0	
19	9	0	
19	10	0	
19	11	0	
19	12	0	
19	13	0	
19	14	0	
19	15	0	
19	16	0	
19	17	0	
19	18	0	
19	19	0	
19	20	0	
19	21	0	
19	22	0	
19	23	0	
19	24	0	
19	25	0	
19	26	0	
19	27	0	
19	28	0	
19	29	0	
19	30	0	
19	31	0	
19	32	0	
19	33	0	
19	34	0	
19	35	0	
19	36	0	
19	37	0	
19	38	0	
19	39	0	
19	40	0	
20	0	0	
20	1	0	
20	2	0	
20	3	0	
20	4	0	
20	5	0	
20	6	0	
20	7	0	
20	8	0	
20	9	0	
20	10	0	
20	11	0	
20	12	0	
20	13	0	
20	14	0	
20	15	0	
20	16	0	
20	17	0	
20	18	0	
20	19	0	
20	20	0	
20	21	0	
20	22	0	
20	23	0	
20	24	0	
20	25	0	
20	26	0	
20	27	0	
20	28	0	
20	29	0	
20	30	0	
20	31	0	
20	32	0	
20	33	0	
20	34	0	
20	35	0	
20	36	0	
20	37	0	
20	38	0	
20	39	0	
20	40	0	
21	0	0	
21	1	0	
21	2	0	
21	3	0	
21	4	0	
21	5	0	
21	6	0	
21	7	0	
21	8	0	
21	9	0	
21	10	0	
21	11	0	
21	12	0	
21	13	0	
21	14	0	
21	15	0	
21	16	0	
21	17	0	
21	18	0	
21	19	0	
21	20	0	
21	21	0	
21	22	0	
21	23	0	
21	24	0	
21	25	0	
21	26	0	
21	27	0	
21	28	0	
21	29	0	
21	30	0	
21	31	0	
21	32	0	
21	33	0	
21	34	0	
21	35	0	
21	36	0	
21	37	0	
21	38	0	
21	39	0	
21	40	0	
22	0	0	
22	1	0	
22	2	0	
22	3	0	
22	4	0	
22	5	0	
22	6	0	
22	7	0	
22	8	0	
22	9	0	
22	10	0	
22	11	0	
22	12	0	
22	13	0	
22	14	0	
22	15	0	
22	16	0	
22	17	0	
22	18	0	
22	19	0	
22	20	0	
22	21	0	
22	22	0	
22	23	0	
22	24	0	
22	25	0	
22	26	0	
22	27	0	
22	28	0	
22	29	0	
22	30	0	
22	31	0	
22	32	0	
22	33	0	
22	34	0	
22	35	0	
22	36	0	
22	37	0	
22	38	0	
22	39	0	
22	40	0	
23	0	0	
23	1	0	
23	2	0	
23	3	0	
23	4	0	
23	5	0	
23	6	0	
23	7	0	
23	8	0	
23	9	0	
23	10	0	
23	11	0	
23	12	0	
23	13	0	
23	14	0	
23	15	0	
23	16	0	
23	17	0	
23	18	0	
23	19	0	
23	20	0	
23	21	0	
23	22	0	
23	23	0	
23	24	0	
23	25	0	
23	26	0	
23	27	0	
23	28	0	
23	29	0	
23	30	0	
23	31	0	
23	32	0	
23	33	0	
23	34	0	
23	35	0	
23	36	0	
23	37	0	
23	38	0	
23	39	0	
23	40	0	
24	0	0	
24	1	0	
24	2	0	
24	3	0	
24	4	0	
24	5	0	
24	6	0	
24	7	0	
24	8	0	
24	9	0	
24	10	0	
24	11	0	
24	12	0	
24	13	0	
24	14	0	
24	15	0	
24	16	0	
24	17	0	
24	18	0	
24	19	0	
24	20	0	
24	21	0	
24	22	0	
24	23	0	
24	24	0	
24	25	0	
24	26	0	
24	27	0	
24	28	0	
24	29	0	
24	30	0	
24	31	0	
24	32	0	
24	33	0	
24	34	0	
24	35	0	
24	36	0	
24	37	0	
24	38	0	
24	39	0	
24	40	0	
25	0	0	
25	1	0	
25	2	0	
25	3	0	
25	4	0	
25	5	0	
25	6	0	
25	7	0	
25	8	0	
25	9	0	
25	10	0	
25	11	0	
25	12	0	
25	13	0	
25	14	0	
25	15	0	
25	16	0	
25	17	0	
25	18	0	
25	19	0	
25	20	0	
25	21	0	
25	22	0	
25	23	0	
25	24	0	
25	25	0	
25	26	0	
25	27	0	
25	28	0	
25	29	0	
25	30	0	
25	31	0	
25	32	0	
25	33	0	
25	34	0	
25	35	0	
25	36	0	
25	37	0	
25	38	0	
25	39	0	
25	40	0	
26	0	0	
26	1	0	
26	2	0	
26	3	0	
26	4	0	
26	5	0	
26	6	0	
26	7	0	
26	8	0	
26	9	0	
26	10	0	
26	11	0	
26	12	0	
26	13	0	
26	14	0	
26	15	0	
26	16	0	
26	17	0	
26	18	0	
26	19	0	
26	20	0	
26	21	0	
26	22	0	
26	23	0	
26	24	0	
26	25	0	
26	26	0	
26	27	0	
26	28	0	
26	29	0	
26	30	0	
26	31	0	
26	32	0	
26	33	0	
26	34	0	
26	35	0	
26	36	0	
26	37	0	
26	38	0	
26	39	0	
26	40	0	
27	0	0	
27	1	0	
27	2	0	
27	3	0	
27	4	0	
27	5	0	
27	6	0	
27	7	0	
27	8	0	
27	9	0	
27	10	0	
27	11	0	
27	12	0	
27	13	0	
27	14	0	
27	15	0	
27	16	0	
27	17	0	
27	18	0	
27	19	0	
27	20	0	
27	21	0	
27	22	0	
27	23	0	
27	24	0	
27	25	0	
27	26	0	
27	27	0	
27	28	0	
27	29	0	
27	30	0	
27	31	0	
27	32	0	
27	33	0	
27	34	0	
27	35	0	
27	36	0	
27	37	0	
27	38	0	
27	39	0	
27	40	0	
28	0	0	
28	1	0	
28	2	0	
28	3	0	
28	4	0	
28	5	0	
28	6	0	
28	7	0	
28	8	0	
28	9	0	
28	10	0	
28	11	0	
28	12	0	
28	13	0	
28	14	0	
28	15	0	
28	16	0	
28	17	0	
28	18	0	
28	19	0	
28	20	0	
28	21	0	
28	22	0	
28	23	0	
28	24	0	
28	25	0	
28	26	0	
28	27	0	
28	28	0	
28	29	0	
28	30	0	
[...]
POINT_DATA	2501
VECTORS d float
3.41181e-016	9.82493e-017	0	
2.40685e-016	7.06192e-017	0	
1.61374e-016	4.57803e-017	0	
1.40421e-016	4.39653e-017	0	
1.13918e-016	3.76514e-017	0	
8.06944e-017	2.45352e-017	0	
4.11768e-017	1.10909e-017	0	
2.52846e-017	-1.50869e-017	0	
-6.84356e-018	4.44421e-017	0	
9.80996e-018	5.91096e-017	0	
1.27109e-017	3.95616e-017	0	
-6.41752e-019	6.60846e-017	0	
2.08963e-018	6.18291e-017	0	
1.4133e-018	6.40286e-017	0	
4.15715e-019	6.79192e-017	0	
7.27674e-019	6.4141e-017	0	
-2.61976e-018	6.81798e-017	0	
-1.80312e-018	6.7041e-017	0	
-3.11797e-018	6.69562e-017	0	
-1.29758e-018	6.98606e-017	0	
-1.6945e-023	6.6282e-017	0	
1.29749e-018	6.98605e-017	0	
3.1179e-018	6.69563e-017	0	
1.8031e-018	6.70409e-017	0	
2.61979e-018	6.81799e-017	0	
-7.27627e-019	6.41409e-017	0	
-4.15741e-019	6.79191e-017	0	
-1.41331e-018	6.40287e-017	0	
-2.08961e-018	6.18291e-017	0	
6.41759e-019	6.60846e-017	0	
-1.27109e-017	3.95616e-017	0	
-9.80993e-018	5.91096e-017	0	
6.84363e-018	4.44421e-017	0	
-2.52846e-017	-1.50869e-017	0	
-4.11768e-017	1.1091e-017	0	
-8.06944e-017	2.45352e-017	0	
-1.13918e-016	3.76514e-017	0	
-1.40421e-016	4.39653e-017	0	
-1.61374e-016	4.57803e-017	0	
-2.40685e-016	7.06192e-017	0	
-3.41181e-016	9.82493e-017	0	
3.0039e-006	2.73096e-006	0	
1.21951e-006	1.48842e-006	0	
1.24194e-006	1.31409e-006	0	
8.47011e-007	1.09423e-006	0	
7.78459e-007	1.03881e-006	0	
6.67844e-007	9.14345e-007	0	
2.47992e-007	7.87209e-007	0	
5.28967e-007	1.33478e-006	0	
4.54578e-008	1.06475e-006	0	
1.34975e-007	1.04799e-006	0	
-2.15393e-008	1.36422e-006	0	
-8.7477e-009	1.35736e-006	0	
-1.0315e-008	1.44008e-006	0	
-2.43323e-008	1.48341e-006	0	
1.85505e-008	1.47892e-006	0	
-2.33094e-008	1.50835e-006	0	
1.27081e-008	1.50657e-006	0	
-1.44118e-008	1.52192e-006	0	
3.27221e-009	1.52185e-006	0	
-4.27378e-009	1.53085e-006	0	
-3.15399e-014	1.52588e-006	0	
4.27359e-009	1.53085e-006	0	
-3.27226e-009	1.52185e-006	0	
1.44118e-008	1.52192e-006	0	
-1.27081e-008	1.50657e-006	0	
2.33095e-008	1.50835e-006	0	
-1.85505e-008	1.47892e-006	0	
2.43324e-008	1.48341e-006	0	
1.03151e-008	1.44008e-006	0	
8.74774e-009	1.35736e-006	0	
2.15394e-008	1.36422e-006	0	
-1.34975e-007	1.04799e-006	0	
-4.54574e-008	1.06475e-006	0	
-5.28966e-007	1.33478e-006	0	
-2.47992e-007	7.87209e-007	0	
-6.67844e-007	9.14345e-007	0	
-7.78459e-007	1.03881e-006	0	
-8.47011e-007	1.09423e-006	0	
-1.24194e-006	1.31409e-006	0	
-1.21951e-006	1.48842e-006	0	
-3.0039e-006	2.73096e-006	0	
4.29787e-006	3.91394e-006	0	
3.40152e-006	3.61526e-006	0	
2.16725e-006	2.74586e-006	0	
2.02569e-006	2.58679e-006	0	
1.47666e-006	2.27486e-006	0	
1.30901e-006	2.26339e-006	0	
9.1911e-007	2.18424e-006	0	
3.29331e-007	1.78622e-006	0	
5.50335e-007	2.33924e-006	0	
2.18473e-007	2.89144e-006	0	
-1.41992e-007	2.59232e-006	0	
-1.32367e-008	2.89836e-006	0	
-1.06028e-007	2.92341e-006	0	
2.35851e-008	2.9292e-006	0	
-6.59846e-008	3.00442e-006	0	
2.36503e-008	2.99517e-006	0	
-4.07792e-008	3.0346e-006	0	
7.81026e-009	3.03734e-006	0	
-1.5578e-008	3.05889e-006	0	
1.28227e-009	3.05018e-006	0	
1.58559e-013	3.06841e-006	0	
-1.28199e-009	3.05018e-006	0	
1.55782e-008	3.05889e-006	0	
-7.81011e-009	3.03733e-006	0	
4.07791e-008	3.0346e-006	0	
-2.36503e-008	2.99517e-006	0	
6.59845e-008	3.00442e-006	0	
-2.35851e-008	2.9292e-006	0	
1.06028e-007	2.92341e-006	0	
1.32369e-008	2.89836e-006	0	
1.41992e-007	2.59232e-006	0	
-2.18472e-007	2.89143e-006	0	
-5.50335e-007	2.33924e-006	0	
-3.29331e-007	1.78622e-006	0	
-9.1911e-007	2.18424e-006	0	
-1.30901e-006	2.26339e-006	0	
-1.47666e-006	2.27486e-006	0	
-2.02569e-006	2.58679e-006	0	
-2.16725e-006	2.74586e-006	0	
-3.40152e-006	3.61526e-006	0	
-4.29787e-006	3.91394e-006	0	
6.20368e-006	5.78946e-006	0	
4.49576e-006	4.88041e-006	0	
3.84369e-006	4.63545e-006	0	
2.75702e-006	3.99885e-006	0	
2.53299e-006	3.90989e-006	0	
1.74647e-006	3.66314e-006	0	
1.65837e-006	3.63956e-006	0	
6.58485e-007	3.78018e-006	0	
1.11402e-006	4.11143e-006	0	
-1.18505e-007	3.76493e-006	0	
1.83027e-007	4.61896e-006	0	
-2.95381e-007	4.27906e-006	0	
4.02634e-008	4.39343e-006	0	
-1.38448e-007	4.47892e-006	0	
3.78656e-008	4.46893e-006	0	
-8.55222e-008	4.53237e-006	0	
4.0057e-009	4.55631e-006	0	
-4.03376e-008	4.57367e-006	0	
-6.02313e-009	4.58325e-006	0	
-1.13949e-008	4.60055e-006	0	
-1.17965e-013	4.58792e-006	0	
1.13946e-008	4.60055e-006	0	
6.02303e-009	4.58325e-006	0	
4.03375e-008	4.57367e-006	0	
-4.00557e-009	4.55631e-006	0	
8.55223e-008	4.53237e-006	0	
-3.78653e-008	4.46893e-006	0	
1.38448e-007	4.47893e-006	0	
-4.02631e-008	4.39343e-006	0	
2.95382e-007	4.27906e-006	0	
-1.83027e-007	4.61896e-006	0	
1.18506e-007	3.76493e-006	0	
-1.11402e-006	4.11143e-006	0	
-6.58485e-007	3.78018e-006	0	
-1.65837e-006	3.63956e-006	0	
-1.74647e-006	3.66314e-006	0	
-2.53299e-006	3.90989e-006	0	
-2.75702e-006	3.99885e-006	0	
-3.84369e-006	4.63545e-006	0	
-4.49576e-006	4.88041e-006	0	
-6.20368e-006	5.78946e-006	0	
7.25644e-006	7.03403e-006	0	
6.18975e-006	6.74545e-006	0	
4.69661e-006	5.99492e-006	0	
4.13358e-006	5.8184e-006	0	
3.01069e-006	5.37699e-006	0	
2.78307e-006	5.31175e-006	0	
1.70201e-006	5.26142e-006	0	
1.72959e-006	5.2172e-006	0	
5.35499e-007	5.0472e-006	0	
8.79494e-007	5.81192e-006	0	
-4.79746e-007	5.27752e-006	0	
1.73546e-008	5.91798e-006	0	
-2.54978e-007	5.92276e-006	0	
4.52643e-008	5.92329e-006	0	
-1.58847e-007	6.03219e-006	0	
-1.07807e-008	6.07407e-006	0	
-7.20517e-008	6.08868e-006	0	
-1.99479e-008	6.11658e-006	0	
-2.54967e-008	6.1367e-006	0	
-8.1639e-009	6.12214e-006	0	
2.03077e-013	6.15524e-006	0	
8.16437e-009	6.12214e-006	0	
2.5497e-008	6.1367e-006	0	
1.99481e-008	6.11658e-006	0	
7.20517e-008	6.08868e-006	0	
1.07807e-008	6.07407e-006	0	
1.58847e-007	6.03219e-006	0	
-4.52642e-008	5.92329e-006	0	
2.54978e-007	5.92276e-006	0	
-1.73541e-008	5.91798e-006	0	
4.79747e-007	5.27752e-006	0	
-8.79494e-007	5.81192e-006	0	
-5.35499e-007	5.0472e-006	0	
-1.72959e-006	5.2172e-006	0	
-1.70201e-006	5.26142e-006	0	
-2.78307e-006	5.31175e-006	0	
-3.01069e-006	5.37699e-006	0	
-4.13358e-006	5.8184e-006	0	
-4.69661e-006	5.99492e-006	0	
-6.18975e-006	6.74545e-006	0	
-7.25644e-006	7.03403e-006	0	
8.85617e-006	8.81886e-006	0	
7.09184e-006	8.07145e-006	0	
6.16676e-006	7.8354e-006	0	
4.75022e-006	7.26055e-006	0	
4.20103e-006	7.13174e-006	0	
3.00997e-006	6.89246e-006	0	
2.71908e-006	6.81115e-006	0	
1.67961e-006	6.75802e-006	0	
1.51251e-006	6.92031e-006	0	
2.28552e-007	6.46336e-006	0	
4.90804e-007	7.31488e-006	0	
-3.88426e-007	7.25118e-006	0	
1.51337e-008	7.35572e-006	0	
-2.256e-007	7.56398e-006	0	
-4.39527e-008	7.61327e-006	0	
-1.06566e-007	7.60083e-006	0	
-5.1114e-008	7.67149e-006	0	
-4.45819e-008	7.66377e-006	0	
-3.03489e-008	7.66921e-006	0	
-1.42637e-008	7.70453e-006	0	
-1.1988e-013	7.6674e-006	0	
1.42634e-008	7.70452e-006	0	
3.03488e-008	7.66921e-006	0	
4.45818e-008	7.66377e-006	0	
5.11142e-008	7.67149e-006	0	
1.06566e-007	7.60083e-006	0	
4.3953e-008	7.61327e-006	0	
2.256e-007	7.56398e-006	0	
-1.51335e-008	7.35572e-006	0	
3.88426e-007	7.25118e-006	0	
-4.90804e-007	7.31489e-006	0	
-2.28552e-007	6.46336e-006	0	
-1.51251e-006	6.92031e-006	0	
-1.67961e-006	6.75802e-006	0	
-2.71908e-006	6.81115e-006	0	
-3.00997e-006	6.89246e-006	0	
-4.20103e-006	7.13174e-006	0	
-4.75022e-006	7.26055e-006	0	
-6.16676e-006	7.8354e-006	0	
-7.09184e-006	8.07145e-006	0	
-8.85617e-006	8.81886e-006	0	
9.75794e-006	1.01565e-005	0	
8.5539e-006	9.8829e-006	0	
6.90014e-006	9.23714e-006	0	
6.00626e-006	9.05684e-006	0	
4.62494e-006	8.65843e-006	0	
4.00957e-006	8.56831e-006	0	
2.90589e-006	8.43116e-006	0	
2.441e-006	8.47993e-006	0	
1.5646e-006	8.34855e-006	0	
1.02648e-006	8.69359e-006	0	
2.57127e-007	8.40186e-006	0	
1.87066e-007	8.79713e-006	0	
-1.44727e-007	9.32591e-006	0	
-1.45814e-007	9.16496e-006	0	
-1.25475e-007	9.15362e-006	0	
-1.04336e-007	9.25091e-006	0	
-5.74542e-008	9.1928e-006	0	
-6.50131e-008	9.22411e-006	0	
-3.17335e-008	9.25925e-006	0	
-1.84126e-008	9.21438e-006	0	
1.16654e-013	9.27628e-006	0	
1.8413e-008	9.21438e-006	0	
3.17337e-008	9.25925e-006	0	
6.50133e-008	9.2241e-006	0	
5.74542e-008	9.1928e-006	0	
1.04336e-007	9.25091e-006	0	
1.25475e-007	9.15362e-006	0	
1.45814e-007	9.16497e-006	0	
1.44728e-007	9.32591e-006	0	
-1.87066e-007	8.79713e-006	0	
-2.57127e-007	8.40186e-006	0	
-1.02648e-006	8.69359e-006	0	
-1.5646e-006	8.34855e-006	0	
-2.441e-006	8.47993e-006	0	
-2.90589e-006	8.43116e-006	0	
-4.00957e-006	8.56831e-006	0	
-4.62494e-006	8.65843e-006	0	
-6.00626e-006	9.05684e-006	0	
-6.90014e-006	9.23714e-006	0	
-8.5539e-006	9.8829e-006	0	
-9.75794e-006	1.01565e-005	0	
1.11803e-005	1.1942e-005	0	
9.36541e-006	1.1273e-005	0	
8.18407e-006	1.10512e-005	0	
6.59066e-006	1.05251e-005	0	
5.64591e-006	1.0405e-005	0	
4.34799e-006	1.01365e-005	0	
3.62328e-006	1.01583e-005	0	
2.6892e-006	1.00326e-005	0	
2.02704e-006	1.02583e-005	0	
1.40246e-006	1.00466e-005	0	
5.62923e-007	1.03227e-005	0	
6.49206e-007	1.06925e-005	0	
-2.1762e-007	1.05344e-005	0	
-5.65056e-008	1.08549e-005	0	
-1.61891e-007	1.08596e-005	0	
-4.5108e-008	1.07151e-005	0	
-1.08057e-007	1.07983e-005	0	
-4.99094e-008	1.08193e-005	0	
-3.73242e-008	1.07675e-005	0	
-2.06547e-008	1.08455e-005	0	
-3.32755e-014	1.07657e-005	0	
2.06546e-008	1.08455e-005	0	
3.73243e-008	1.07675e-005	0	
4.99094e-008	1.08193e-005	0	
1.08058e-007	1.07983e-005	0	
4.51082e-008	1.07151e-005	0	
1.61891e-007	1.08597e-005	0	
5.65057e-008	1.08549e-005	0	
2.1762e-007	1.05344e-005	0	
-6.49206e-007	1.06925e-005	0	
-5.62922e-007	1.03227e-005	0	
-1.40246e-006	1.00466e-005	0	
-2.02704e-006	1.02583e-005	0	
-2.6892e-006	1.00326e-005	0	
-3.62328e-006	1.01583e-005	0	
-4.34799e-006	1.01365e-005	0	
-5.64591e-006	1.0405e-005	0	
-6.59066e-006	1.05251e-005	0	
-8.18407e-006	1.10512e-005	0	
-9.36541e-006	1.1273e-005	0	
-1.11803e-005	1.1942e-005	0	
1.20389e-005	1.33645e-005	0	
1.06626e-005	1.31178e-005	0	
8.89913e-006	1.24988e-005	0	
7.66867e-006	1.2326e-005	0	
6.11912e-006	1.19051e-005	0	
5.09061e-006	1.18831e-005	0	
3.92285e-006	1.16923e-005	0	
3.14852e-006	1.18592e-005	0	
2.39406e-006	1.16766e-005	0	
1.70313e-006	1.19577e-005	0	
1.21631e-006	1.17482e-005	0	
3.6383e-007	1.16619e-005	0	
4.33604e-007	1.21823e-005	0	
-1.53761e-007	1.23679e-005	0	
-3.91954e-008	1.21957e-005	0	
-1.46688e-007	1.24105e-005	0	
-8.36422e-008	1.23838e-005	0	
-5.65437e-008	1.2327e-005	0	
-5.76986e-008	1.2419e-005	0	
-9.87068e-009	1.23276e-005	0	
-3.17355e-014	1.24142e-005	0	
9.87083e-009	1.23276e-005	0	
5.76985e-008	1.2419e-005	0	
5.65437e-008	1.2327e-005	0	
8.36421e-008	1.23838e-005	0	
1.46688e-007	1.24105e-005	0	
3.91954e-008	1.21957e-005	0	
1.53761e-007	1.23679e-005	0	
-4.33604e-007	1.21823e-005	0	
-3.6383e-007	1.16619e-005	0	
-1.21631e-006	1.17482e-005	0	
-1.70313e-006	1.19577e-005	0	
-2.39406e-006	1.16766e-005	0	
-3.14852e-006	1.18592e-005	0	
-3.92285e-006	1.16923e-005	0	
-5.09061e-006	1.18831e-005	0	
-6.11912e-006	1.19051e-005	0	
-7.66867e-006	1.2326e-005	0	
-8.89913e-006	1.24988e-005	0	
-1.06626e-005	1.31178e-005	0	
-1.20389e-005	1.33645e-005	0	
1.33519e-005	1.52525e-005	0	
1.14588e-005	1.45845e-005	0	
1.00436e-005	1.43924e-005	0	
8.30414e-006	1.38234e-005	0	
6.969e-006	1.3692e-005	0	
5.43987e-006	1.33569e-005	0	
4.39992e-006	1.34673e-005	0	
3.42643e-006	1.33129e-005	0	
2.78594e-006	1.35378e-005	0	
2.11269e-006	1.33063e-005	0	
1.61126e-006	1.34707e-005	0	
9.13061e-007	1.33951e-005	0	
3.76546e-007	1.33603e-005	0	
2.15944e-007	1.34782e-005	0	
-3.72136e-008	1.41815e-005	0	
-1.56654e-007	1.39191e-005	0	
-4.82297e-008	1.38964e-005	0	
-1.00588e-007	1.40088e-005	0	
-5.67704e-010	1.38746e-005	0	
-4.2828e-008	1.39891e-005	0	
1.23761e-013	1.39041e-005	0	
4.28282e-008	1.39891e-005	0	
5.67964e-010	1.38746e-005	0	
1.00588e-007	1.40088e-005	0	
4.823e-008	1.38964e-005	0	
1.56654e-007	1.39191e-005	0	
3.72138e-008	1.41815e-005	0	
-2.15944e-007	1.34782e-005	0	
-3.76546e-007	1.33603e-005	0	
-9.13061e-007	1.33951e-005	0	
-1.61126e-006	1.34707e-005	0	
-2.11269e-006	1.33063e-005	0	
-2.78594e-006	1.35378e-005	0	
-3.42643e-006	1.33129e-005	0	
-4.39992e-006	1.34673e-005	0	
-5.43987e-006	1.33569e-005	0	
-6.969e-006	1.3692e-005	0	
-8.30414e-006	1.38234e-005	0	
-1.00436e-005	1.43924e-005	0	
-1.14588e-005	1.45845e-005	0	
-1.33519e-005	1.52525e-005	0	
1.42005e-005	1.6761e-005	0	
1.26541e-005	1.65721e-005	0	
1.07666e-005	1.5927e-005	0	
9.30098e-006	1.57731e-005	0	
7.53889e-006	1.52279e-005	0	
6.0377e-006	1.51149e-005	0	
4.56202e-006	1.48703e-005	0	
3.79616e-006	1.50755e-005	0	
3.06488e-006	1.49237e-005	0	
2.63889e-006	1.50784e-005	0	
1.88528e-006	1.4908e-005	0	
1.52587e-006	1.5001e-005	0	
5.46413e-007	1.4909e-005	0	
7.81409e-007	1.55229e-005	0	
-2.45794e-007	1.51563e-005	0	
-7.40564e-009	1.55368e-005	0	
-1.62463e-007	1.55798e-005	0	
1.3344e-008	1.53978e-005	0	
-1.0722e-007	1.55669e-005	0	
-1.06216e-009	1.54892e-005	0	
-1.95903e-013	1.55446e-005	0	
1.06201e-009	1.54892e-005	0	
1.0722e-007	1.55669e-005	0	
-1.3344e-008	1.53978e-005	0	
1.62463e-007	1.55798e-005	0	
7.40573e-009	1.55368e-005	0	
2.45794e-007	1.51563e-005	0	
-7.81409e-007	1.55229e-005	0	
-5.46412e-007	1.4909e-005	0	
-1.52587e-006	1.5001e-005	0	
-1.88528e-006	1.4908e-005	0	
-2.63889e-006	1.50784e-005	0	
-3.06488e-006	1.49237e-005	0	
-3.79616e-006	1.50755e-005	0	
-4.56202e-006	1.48703e-005	0	
-6.0377e-006	1.51149e-005	0	
-7.53889e-006	1.52279e-005	0	
-9.30098e-006	1.57731e-005	0	
-1.07666e-005	1.5927e-005	0	
-1.26541e-005	1.65721e-005	0	
-1.42005e-005	1.6761e-005	0	
1.54576e-005	1.88482e-005	0	
1.34176e-005	1.81468e-005	0	
1.18532e-005	1.8008e-005	0	
9.94894e-006	1.7389e-005	0	
8.42232e-006	1.72618e-005	0	
6.52835e-006	1.67247e-005	0	
4.87053e-006	1.65655e-005	0	
3.91052e-006	1.64181e-005	0	
3.54575e-006	1.65609e-005	0	
2.91091e-006	1.64347e-005	0	
2.48206e-006	1.65821e-005	0	
1.71663e-006	1.64633e-005	0	
1.34908e-006	1.65597e-005	0	
3.47151e-007	1.62031e-005	0	
4.93192e-007	1.68699e-005	0	
-2.06732e-007	1.69967e-005	0	
6.12324e-009	1.68469e-005	0	
-1.54441e-007	1.7181e-005	0	
-1.61176e-008	1.70431e-005	0	
-5.33363e-008	1.71238e-005	0	
2.34071e-013	1.70993e-005	0	
5.33365e-008	1.71238e-005	0	
1.6118e-008	1.70431e-005	0	
1.54441e-007	1.7181e-005	0	
-6.12315e-009	1.68469e-005	0	
2.06732e-007	1.69967e-005	0	
-4.93192e-007	1.68699e-005	0	
-3.47151e-007	1.62031e-005	0	
-1.34908e-006	1.65597e-005	0	
-1.71663e-006	1.64633e-005	0	
-2.48206e-006	1.65821e-005	0	
-2.91091e-006	1.64347e-005	0	
-3.54575e-006	1.65609e-005	0	
-3.91052e-006	1.64181e-005	0	
-4.87053e-006	1.65655e-005	0	
-6.52835e-006	1.67247e-005	0	
-8.42232e-006	1.72618e-005	0	
-9.94894e-006	1.7389e-005	0	
-1.18532e-005	1.8008e-005	0	
-1.34176e-005	1.81468e-005	0	
-1.54576e-005	1.88482e-005	0	
1.62384e-005	2.04477e-005	0	
1.45762e-005	2.03384e-005	0	
1.25241e-005	1.96676e-005	0	
1.09518e-005	1.95643e-005	0	
8.9835e-006	1.89823e-005	0	
7.3694e-006	1.88785e-005	0	
5.28992e-006	1.83604e-005	0	
3.99075e-006	1.77462e-005	0	
3.87824e-006	1.79489e-005	0	
3.37815e-006	1.80935e-005	0	
2.84325e-006	1.79136e-005	0	
2.23295e-006	1.80886e-005	0	
1.61955e-006	1.80006e-005	0	
1.01199e-006	1.81677e-005	0	
3.50423e-007	1.80175e-005	0	
2.49758e-007	1.81951e-005	0	
-8.47685e-008	1.89277e-005	0	
-1.1042e-007	1.85563e-005	0	
-8.28252e-008	1.87341e-005	0	
-3.07677e-008	1.86945e-005	0	
-2.86635e-013	1.86805e-005	0	
3.07674e-008	1.86945e-005	0	
8.28247e-008	1.87341e-005	0	
1.1042e-007	1.85563e-005	0	
8.47683e-008	1.89277e-005	0	
-2.49758e-007	1.81951e-005	0	
-3.50423e-007	1.80175e-005	0	
-1.01199e-006	1.81677e-005	0	
-1.61955e-006	1.80006e-005	0	
-2.23295e-006	1.80886e-005	0	
-2.84325e-006	1.79136e-005	0	
-3.37815e-006	1.80935e-005	0	
-3.87824e-006	1.79489e-005	0	
-3.99075e-006	1.77462e-005	0	
-5.28992e-006	1.83604e-005	0	
-7.3694e-006	1.88785e-005	0	
-8.9835e-006	1.89823e-005	0	
-1.09518e-005	1.95643e-005	0	
-1.25241e-005	1.96676e-005	0	
-1.45762e-005	2.03384e-005	0	
-1.62384e-005	2.04477e-005	0	
1.74683e-005	2.27466e-005	0	
1.52439e-005	2.20205e-005	0	
1.36157e-005	2.19465e-005	0	
1.15249e-005	2.13109e-005	0	
9.93309e-006	2.12361e-005	0	
7.85473e-006	2.07027e-005	0	
6.18983e-006	2.06147e-005	0	
4.26137e-006	1.95733e-005	0	
3.89302e-006	1.9219e-005	0	
3.90489e-006	1.93418e-005	0	
3.22199e-006	1.96998e-005	0	
2.62943e-006	1.95693e-005	0	
1.99917e-006	1.96939e-005	0	
1.48203e-006	1.96323e-005	0	
6.24252e-007	1.96833e-005	0	
7.20031e-007	2.02467e-005	0	
-2.04794e-007	1.98463e-005	0	
-4.07827e-008	2.04528e-005	0	
-1.16673e-007	2.02429e-005	0	
-1.40625e-008	2.02774e-005	0	
2.22879e-013	2.02996e-005	0	
1.40626e-008	2.02774e-005	0	
1.16673e-007	2.02429e-005	0	
4.07824e-008	2.04528e-005	0	
2.04794e-007	1.98463e-005	0	
-7.20031e-007	2.02467e-005	0	
-6.24251e-007	1.96833e-005	0	
-1.48203e-006	1.96323e-005	0	
-1.99917e-006	1.96939e-005	0	
-2.62943e-006	1.95693e-005	0	
-3.22199e-006	1.96998e-005	0	
-3.90489e-006	1.93418e-005	0	
-3.89302e-006	1.9219e-005	0	
-4.26137e-006	1.95733e-005	0	
-6.18983e-006	2.06147e-005	0	
-7.85473e-006	2.07027e-005	0	
-9.93309e-006	2.12361e-005	0	
-1.15249e-005	2.13109e-005	0	
-1.36157e-005	2.19465e-005	0	
-1.52439e-005	2.20205e-005	0	
-1.74683e-005	2.27466e-005	0	
1.81099e-005	2.44199e-005	0	
1.64066e-005	2.43892e-005	0	
1.41795e-005	2.37051e-005	0	
1.25799e-005	2.36525e-005	0	
1.0414e-005	2.30512e-005	0	
8.79975e-006	2.29806e-005	0	
6.56842e-006	2.2488e-005	0	
4.58352e-006	2.26414e-005	0	
4.10211e-006	2.0873e-005	0	
4.58627e-006	2.16338e-005	0	
3.51197e-006	2.1073e-005	0	
3.10185e-006	2.12716e-005	0	
2.39933e-006	2.11911e-005	0	
1.78628e-006	2.12892e-005	0	
1.30249e-006	2.12932e-005	0	
4.01457e-007	2.09888e-005	0	
4.7316e-007	2.17449e-005	0	
-2.07048e-007	2.1605e-005	0	
-4.7101e-008	2.18169e-005	0	
-1.14836e-007	2.19059e-005	0	
-2.74319e-013	2.19451e-005	0	
1.14836e-007	2.19059e-005	0	
4.71006e-008	2.18169e-005	0	
2.07048e-007	2.1605e-005	0	
-4.73161e-007	2.17449e-005	0	
-4.01457e-007	2.09888e-005	0	
-1.30249e-006	2.12932e-005	0	
-1.78628e-006	2.12892e-005	0	
-2.39933e-006	2.11911e-005	0	
-3.10185e-006	2.12716e-005	0	
-3.51197e-006	2.1073e-005	0	
-4.58627e-006	2.16338e-005	0	
-4.10211e-006	2.0873e-005	0	
-4.58352e-006	2.26414e-005	0	
-6.56842e-006	2.2488e-005	0	
-8.79975e-006	2.29806e-005	0	
-1.0414e-005	2.30512e-005	0	
-1.25799e-005	2.36525e-005	0	
-1.41795e-005	2.37051e-005	0	
-1.64066e-005	2.43892e-005	0	
-1.81098e-005	2.44199e-005	0	
1.93227e-005	2.68672e-005	0	
1.69369e-005	2.6137e-005	0	
1.53105e-005	2.61211e-005	0	
1.30547e-005	2.54715e-005	0	
1.1468e-005	2.5424e-005	0	
9.20381e-006	2.485e-005	0	
7.49881e-006	2.47804e-005	0	
5.33014e-006	2.42391e-005	0	
4.96627e-006	2.25712e-005	0	
4.09076e-006	2.21408e-005	0	
4.34926e-006	2.30119e-005	0	
3.28483e-006	2.27329e-005	0	
2.93745e-006	2.28302e-005	0	
2.15691e-006	2.27784e-005	0	
1.65008e-006	2.28188e-005	0	
1.00184e-006	2.29914e-005	0	
3.54598e-007	2.27107e-005	0	
2.78405e-007	2.3209e-005	0	
-1.49231e-007	2.35277e-005	0	
-2.17018e-007	2.35603e-005	0	
1.27112e-013	2.36106e-005	0	
2.17018e-007	2.35603e-005	0	
1.49231e-007	2.35277e-005	0	
-2.78405e-007	2.3209e-005	0	
-3.54598e-007	2.27107e-005	0	
-1.00184e-006	2.29914e-005	0	
-1.65008e-006	2.28188e-005	0	
-2.15691e-006	2.27784e-005	0	
-2.93745e-006	2.28302e-005	0	
-3.28483e-006	2.27329e-005	0	
-4.34926e-006	2.30119e-005	0	
-4.09076e-006	2.21408e-005	0	
-4.96627e-006	2.25712e-005	0	
-5.33014e-006	2.42391e-005	0	
-7.49881e-006	2.47804e-005	0	
-9.20381e-006	2.485e-005	0	
-1.1468e-005	2.5424e-005	0	
-1.30547e-005	2.54715e-005	0	
-1.53105e-005	2.61211e-005	0	
-1.69369e-005	2.6137e-005	0	
-1.93227e-005	2.68672e-005	0	
1.97947e-005	2.85745e-005	0	
1.81173e-005	2.86079e-005	0	
1.57506e-005	2.79213e-005	0	
1.41824e-005	2.79147e-005	0	
1.18793e-005	2.72918e-005	0	
1.02699e-005	2.72454e-005	0	
7.85515e-006	2.66874e-005	0	
6.69752e-006	2.65241e-005	0	
5.17429e-006	2.44361e-005	0	
4.84654e-006	2.43668e-005	0	
4.16711e-006	2.40654e-005	0	
4.0376e-006	2.43743e-005	0	
3.13514e-006	2.43532e-005	0	
2.69894e-006	2.44351e-005	0	
1.92146e-006	2.44244e-005	0	
1.48471e-006	2.44018e-005	0	
6.52419e-007	2.46507e-005	0	
6.93663e-007	2.4863e-005	0	
-2.32931e-007	2.48683e-005	0	
-3.18533e-007	2.52677e-005	0	
-1.50474e-013	2.52922e-005	0	
3.18533e-007	2.52677e-005	0	
2.32931e-007	2.48683e-005	0	
-6.93664e-007	2.4863e-005	0	
-6.52419e-007	2.46507e-005	0	