# vtk DataFile Version 4.1
vtk output
ASCII
DATASET UNSTRUCTURED_GRID

POINTS	10201	float
0	0	0	
0	1	0	
0	2	0	
0	3	0	
0	4	0	
0	5	0	
0	6	0	
0	7	0	
0	8	0	
0	9	0	
0	10	0	
0	11	0	
0	12	0	
0	13	0	
0	14	0	
0	15	0	
0	16	0	
0	17	0	
0	18	0	
0	19	0	
0	20	0	
0	21	0	
0	22	0	
0	23	0	
0	24	0	
0	25	0	
0	26	0	
0	27	0	
0	28	0	
0	29	0	
0	30	0	
0	31	0	
0	32	0	
0	33	0	
0	34	0	
0	35	0	
0	36	0	
0	37	0	
0	38	0	
0	39	0	
0	40	0	
0	41	0	
0	42	0	
0	43	0	
0	44	0	
0	45	0	
0	46	0	
0	47	0	
0	48	0	
0	49	0	
0	50	0	
0	51	0	
0	52	0	
0	53	0	
0	54	0	
0	55	0	
0	56	0	
0	57	0	
0	58	0	
0	59	0	
0	60	0	
0	61	0	
0	62	0	
0	63	0	
0	64	0	
0	65	0	
0	66	0	
0	67	0	
0	68	0	
0	69	0	
0	70	0	
0	71	0	
0	72	0	
0	73	0	
0	74	0	
0	75	0	
0	76	0	
0	77	0	
0	78	0	
0	79	0	
0	80	0	
0	81	0	
0	82	0	
0	83	0	
0	84	0	
0	85	0	
0	86	0	
0	87	0	
0	88	0	
0	89	0	
0	90	0	
0	91	0	
0	92	0	
0	93	0	
0	94	0	
0	95	0	
0	96	0	
0	97	0	
0	98	0	
0	99	0	
0	100	0	
1	0	0	
1	1	0	
1	2	0	
1	3	0	
1	4	0	
1	5	0	
1	6	0	
1	7	0	
1	8	0	
1	9	0	
1	10	0	
1	11	0	
1	12	0	
1	13	0	
1	14	0	
1	15	0	
1	16	0	
1	17	0	
1	18	0	
1	19	0	
1	20	0	
1	21	0	
1	22	0	
1	23	0	
1	24	0	
1	25	0	
1	26	0	
1	27	0	
1	28	0	
1	29	0	
1	30	0	
1	31	0	
1	32	0	
1	33	0	
1	34	0	
1	35	0	
1	36	0	
1	37	0	
1	38	0	
1	39	0	
1	40	0	
1	41	0	
1	42	0	
1	43	0	
1	44	0	
1	45	0	
1	46	0	
1	47	0	
1	48	0	
1	49	0	
1	50	0	
1	51	0	
1	52	0	
1	53	0	
1	54	0	
1	55	0	
1	56	0	
1	57	0	
1	58	0	
1	59	0	
1	60	0	
1	61	0	
1	62	0	
1	63	0	
1	64	0	
1	65	0	
1	66	0	
1	67	0	
1	68	0	
1	69	0	
1	70	0	
1	71	0	
1	72	0	
1	73	0	
1	74	0	
1	75	0	
1	76	0	
1	77	0	
1	78	0	
1	79	0	
1	80	0	
1	81	0	
1	82	0	
1	83	0	
1	84	0	
1	85	0	
1	86	0	
1	87	0	
1	88	0	
1	89	0	
1	90	0	
1	91	0	
1	92	0	
1	93	0	
1	94	0	
1	95	0	
1	96	0	
1	97	0	
1	98	0	
1	99	0	
1	100	0	
2	0	0	
2	1	0	
2	2	0	
2	3	0	
2	4	0	
2	5	0	
2	6	0	
2	7	0	
2	8	0	
2	9	0	
2	10	0	
2	11	0	
2	12	0	
2	13	0	
2	14	0	
2	15	0	
2	16	0	
2	17	0	
2	18	0	
2	19	0	
2	20	0	
2	21	0	
2	22	0	
2	23	0	
2	24	0	
2	25	0	
2	26	0	
2	27	0	
2	28	0	
2	29	0	
2	30	0	
2	31	0	
2	32	0	
2	33	0	
2	34	0	
2	35	0	
2	36	0	
2	37	0	
2	38	0	
2	39	0	
2	40	0	
2	41	0	
2	42	0	
2	43	0	
2	44	0	
2	45	0	
2	46	0	
2	47	0	
2	48	0	
2	49	0	
2	50	0	
2	51	0	
2	52	0	
2	53	0	
2	54	0	
2	55	0	
2	56	0	
2	57	0	
2	58	0	
2	59	0	
2	60	0	
2	61	0	
2	62	0	
2	63	0	
2	64	0	
2	65	0	
2	66	0	
2	67	0	
2	68	0	
2	69	0	
2	70	0	
2	71	0	
2	72	0	
2	73	0	
2	74	0	
2	75	0	
2	76	0	
2	77	0	
2	78	0	
2	79	0	
2	80	0	
2	81	0	
2	82	0	
2	83	0	
2	84	0	
2	85	0	
2	86	0	
2	87	0	
2	88	0	
2	89	0	
2	90	0	
2	91	0	
2	92	0	
2	93	0	
2	94	0	
2	95	0	
2	96	0	
2	97	0	
2	98	0	
2	99	0	
2	100	0	
3	0	0	
3	1	0	
3	2	0	
3	3	0	
3	4	0	
3	5	0	
3	6	0	
3	7	0	
3	8	0	
3	9	0	
3	10	0	
3	11	0	
3	12	0	
3	13	0	
3	14	0	
3	15	0	
3	16	0	
3	17	0	
3	18	0	
3	19	0	
3	20	0	
3	21	0	
3	22	0	
3	23	0	
3	24	0	
3	25	0	
3	26	0	
3	27	0	
3	28	0	
3	29	0	
3	30	0	
3	31	0	
3	32	0	
3	33	0	
3	34	0	
3	35	0	
3	36	0	
3	37	0	
3	38	0	
3	39	0	
3	40	0	
3	41	0	
3	42	0	
3	43	0	
3	44	0	
3	45	0	
3	46	0	
3	47	0	
3	48	0	
3	49	0	
3	50	0	
3	51	0	
3	52	0	
3	53	0	
3	54	0	
3	55	0	
3	56	0	
3	57	0	
3	58	0	
3	59	0	
3	60	0	
3	61	0	
3	62	0	
3	63	0	
3	64	0	
3	65	0	
3	66	0	
3	67	0	
3	68	0	
3	69	0	
3	70	0	
3	71	0	
3	72	0	
3	73	0	
3	74	0	
3	75	0	
3	76	0	
3	77	0	
3	78	0	
3	79	0	
3	80	0	
3	81	0	
3	82	0	
3	83	0	
3	84	0	
3	85	0	
3	86	0	
3	87	0	
3	88	0	
3	89	0	
3	90	0	
3	91	0	
3	92	0	
3	93	0	
3	94	0	
3	95	0	
3	96	0	
3	97	0	
3	98	0	
3	99	0	
3	100	0	
4	0	0	
4	1	0	
4	2	0	
4	3	0	
4	4	0	
4	5	0	
4	6	0	
4	7	0	
4	8	0	
4	9	0	
4	10	0	
4	11	0	
4	12	0	
4	13	0	
4	14	0	
4	15	0	
4	16	0	
4	17	0	
4	18	0	
4	19	0	
4	20	0	
4	21	0	
4	22	0	
4	23	0	
4	24	0	
4	25	0	
4	26	0	
4	27	0	
4	28	0	
4	29	0	
4	30	0	
4	31	0	
4	32	0	
4	33	0	
4	34	0	
4	35	0	
4	36	0	
4	37	0	
4	38	0	
4	39	0	
4	40	0	
4	41	0	
4	42	0	
4	43	0	
4	44	0	
4	45	0	
4	46	0	
4	47	0	
4	48	0	
4	49	0	
4	50	0	
4	51	0	
4	52	0	
4	53	0	
4	54	0	
4	55	0	
4	56	0	
4	57	0	
4	58	0	
4	59	0	
4	60	0	
4	61	0	
4	62	0	
4	63	0	
4	64	0	
4	65	0	
4	66	0	
4	67	0	
4	68	0	
4	69	0	
4	70	0	
4	71	0	
4	72	0	
4	73	0	
4	74	0	
4	75	0	
4	76	0	
4	77	0	
4	78	0	
4	79	0	
4	80	0	
4	81	0	
4	82	0	
4	83	0	
4	84	0	
4	85	0	
4	86	0	
4	87	0	
4	88	0	
4	89	0	
4	90	0	
4	91	0	
4	92	0	
4	93	0	
4	94	0	
4	95	0	
4	96	0	
4	97	0	
4	98	0	
4	99	0	
4	100	0	
5	0	0	
5	1	0	
5	2	0	
5	3	0	
5	4	0	
5	5	0	
5	6	0	
5	7	0	
5	8	0	
5	9	0	
5	10	0	
5	11	0	
5	12	0	
5	13	0	
5	14	0	
5	15	0	
5	16	0	
5	17	0	
5	18	0	
5	19	0	
5	20	0	
5	21	0	
5	22	0	
5	23	0	
5	24	0	
5	25	0	
5	26	0	
5	27	0	
5	28	0	
5	29	0	
5	30	0	
5	31	0	
5	32	0	
5	33	0	
5	34	0	
5	35	0	
5	36	0	
5	37	0	
5	38	0	
5	39	0	
5	40	0	
5	41	0	
5	42	0	
5	43	0	
5	44	0	
5	45	0	
5	46	0	
5	47	0	
5	48	0	
5	49	0	
5	50	0	
5	51	0	
5	52	0	
5	53	0	
5	54	0	
5	55	0	
5	56	0	
5	57	0	
5	58	0	
5	59	0	
5	60	0	
5	61	0	
5	62	0	
5	63	0	
5	64	0	
5	65	0	
5	66	0	
5	67	0	
5	68	0	
5	69	0	
5	70	0	
5	71	0	
5	72	0	
5	73	0	
5	74	0	
5	75	0	
5	76	0	
5	77	0	
5	78	0	
5	79	0	
5	80	0	
5	81	0	
5	82	0	
5	83	0	
5	84	0	
5	85	0	
5	86	0	
5	87	0	
5	88	0	
5	89	0	
5	90	0	
5	91	0	
5	92	0	
5	93	0	
5	94	0	
5	95	0	
5	96	0	
5	97	0	
5	98	0	
5	99	0	
5	100	0	
6	0	0	
6	1	0	
6	2	0	
6	3	0	
6	4	0	
6	5	0	
6	6	0	
6	7	0	
6	8	0	
6	9	0	
6	10	0	
6	11	0	
6	12	0	
6	13	0	
6	14	0	
6	15	0	
6	16	0	
6	17	0	
6	18	0	
6	19	0	
6	20	0	
6	21	0	
6	22	0	
6	23	0	
6	24	0	
6	25	0	
6	26	0	
6	27	0	
6	28	0	
6	29	0	
6	30	0	
6	31	0	
6	32	0	
6	33	0	
6	34	0	
6	35	0	
6	36	0	
6	37	0	
6	38	0	
6	39	0	
6	40	0	
6	41	0	
6	42	0	
6	43	0	
6	44	0	
6	45	0	
6	46	0	
6	47	0	
6	48	0	
6	49	0	
6	50	0	
6	51	0	
6	52	0	
6	53	0	
6	54	0	
6	55	0	
6	56	0	
6	57	0	
6	58	0	
6	59	0	
6	60	0	
6	61	0	
6	62	0	
6	63	0	
6	64	0	
6	65	0	
6	66	0	
6	67	0	
6	68	0	
6	69	0	
6	70	0	
6	71	0	
6	72	0	
6	73	0	
6	74	0	
6	75	0	
6	76	0	
6	77	0	
6	78	0	
6	79	0	
6	80	0	
6	81	0	
6	82	0	
6	83	0	
6	84	0	
6	85	0	
6	86	0	
6	87	0	
6	88	0	
6	89	0	
6	90	0	
6	91	0	
6	92	0	
6	93	0	
6	94	0	
6	95	0	
6	96	0	
6	97	0	
6	98	0	
6	99	0	
6	100	0	
7	0	0	
7	1	0	
7	2	0	
7	3	0	
7	4	0	
7	5	0	
7	6	0	
7	7	0	
7	8	0	
7	9	0	
7	10	0	
7	11	0	
7	12	0	
7	13	0	
7	14	0	
7	15	0	
7	16	0	
7	17	0	
7	18	0	
7	19	0	
7	20	0	
7	21	0	
7	22	0	
7	23	0	
7	24	0	
7	25	0	
7	26	0	
7	27	0	
7	28	0	
7	29	0	
7	30	0	
7	31	0	
7	32	0	
7	33	0	
7	34	0	
7	35	0	
7	36	0	
7	37	0	
7	38	0	
7	39	0	
7	40	0	
7	41	0	
7	42	0	
7	43	0	
7	44	0	
7	45	0	
7	46	0	
7	47	0	
7	48	0	
7	49	0	
7	50	0	
7	51	0	
7	52	0	
7	53	0	
7	54	0	
7	55	0	
7	56	0	
7	57	0	
7	58	0	
7	59	0	
7	60	0	
7	61	0	
7	62	0	
7	63	0	
7	64	0	
7	65	0	
7	66	0	
7	67	0	
7	68	0	
7	69	0	
7	70	0	
7	71	0	
7	72	0	
7	73	0	
7	74	0	
7	75	0	
7	76	0	
7	77	0	
7	78	0	
7	79	0	
7	80	0	
7	81	0	
7	82	0	
7	83	0	
7	84	0	
7	85	0	
7	86	0	
7	87	0	
7	88	0	
7	89	0	
7	90	0	
7	91	0	
7	92	0	
7	93	0	
7	94	0	
7	95	0	
7	96	0	
7	97	0	
7	98	0	
7	99	0	
7	100	0	
8	0	0	
8	1	0	
8	2	0	
8	3	0	
8	4	0	
8	5	0	
8	6	0	
8	7	0	
8	8	0	
8	9	0	
8	10	0	
8	11	0	
8	12	0	
8	13	0	
8	14	0	
8	15	0	
8	16	0	
8	17	0	
8	18	0	
8	19	0	
8	20	0	
8	21	0	
8	22	0	
8	23	0	
8	24	0	
8	25	0	
8	26	0	
8	27	0	
8	28	0	
8	29	0	
8	30	0	
8	31	0	
8	32	0	
8	33	0	
8	34	0	
8	35	0	
8	36	0	
8	37	0	
8	38	0	
8	39	0	
8	40	0	
8	41	0	
8	42	0	
8	43	0	
8	44	0	
8	45	0	
8	46	0	
8	47	0	
8	48	0	
8	49	0	
8	50	0	
8	51	0	
8	52	0	
8	53	0	
8	54	0	
8	55	0	
8	56	0	
8	57	0	
8	58	0	
8	59	0	
8	60	0	
8	61	0	
8	62	0	
8	63	0	
8	64	0	
8	65	0	
8	66	0	
8	67	0	
8	68	0	
8	69	0	
8	70	0	
8	71	0	
8	72	0	
8	73	0	
8	74	0	
8	75	0	
8	76	0	
8	77	0	
8	78	0	
8	79	0	
8	80	0	
8	81	0	
8	82	0	
8	83	0	
8	84	0	
8	85	0	
8	86	0	
8	87	0	
8	88	0	
8	89	0	
8	90	0	
8	91	0	
8	92	0	
8	93	0	
8	94	0	
8	95	0	
8	96	0	
8	97	0	
8	98	0	
8	99	0	
8	100	0	
9	0	0	
9	1	0	
9	2	0	
9	3	0	
9	4	0	
9	5	0	
9	6	0	
9	7	0	
9	8	0	
9	9	0	
9	10	0	
9	11	0	
9	12	0	
9	13	0	
9	14	0	
9	15	0	
9	16	0	
9	17	0	
9	18	0	
9	19	0	
9	20	0	
9	21	0	
9	22	0	
9	23	0	
9	24	0	
9	25	0	
9	26	0	
9	27	0	
9	28	0	
9	29	0	
9	30	0	
9	31	0	
9	32	0	
9	33	0	
9	34	0	
9	35	0	
9	36	0	
9	37	0	
9	38	0	
9	39	0	
9	40	0	
9	41	0	
9	42	0	
9	43	0	
9	44	0	
9	45	0	
9	46	0	
9	47	0	
9	48	0	
9	49	0	
9	50	0	
9	51	0	
9	52	0	
9	53	0	
9	54	0	
9	55	0	
9	56	0	
9	57	0	
9	58	0	
9	59	0	
9	60	0	
9	61	0	
9	62	0	
9	63	0	
9	64	0	
9	65	0	
9	66	0	
9	67	0	
9	68	0	
9	69	0	
9	70	0	
9	71	0	
9	72	0	
9	73	0	
9	74	0	
9	75	0	
9	76	0	
9	77	0	
9	78	0	
9	79	0	
9	80	0	
9	81	0	
9	82	0	
9	83	0	
9	84	0	
9	85	0	
9	86	0	
9	87	0	
9	88	0	
9	89	0	
9	90	0	
9	91	0	
9	92	0	
9	93	0	
9	94	0	
9	95	0	
9	96	0	
9	97	0	
9	98	0	
9	99	0	
9	100	0	
10	0	0	
10	1	0	
10	2	0	
10	3	0	
10	4	0	
10	5	0	
10	6	0	
10	7	0	
10	8	0	
10	9	0	
10	10	0	
10	11	0	
10	12	0	
10	13	0	
10	14	0	
10	15	0	
10	16	0	
10	17	0	
10	18	0	
10	19	0	
10	20	0	
10	21	0	
10	22	0	
10	23	0	
10	24	0	
10	25	0	
10	26	0	
10	27	0	
10	28	0	
10	29	0	
10	30	0	
10	31	0	
10	32	0	
10	33	0	
10	34	0	
10	35	0	
10	36	0	
10	37	0	
10	38	0	
10	39	0	
10	40	0	
10	41	0	
10	42	0	
10	43	0	
10	44	0	
10	45	0	
10	46	0	
10	47	0	
10	48	0	
10	49	0	
10	50	0	
10	51	0	
10	52	0	
10	53	0	
10	54	0	
10	55	0	
10	56	0	
10	57	0	
10	58	0	
10	59	0	
10	60	0	
10	61	0	
10	62	0	
10	63	0	
10	64	0	
10	65	0	
10	66	0	
10	67	0	
10	68	0	
10	69	0	
10	70	0	
10	71	0	
10	72	0	
10	73	0	
10	74	0	
10	75	0	
10	76	0	
10	77	0	
10	78	0	
10	79	0	
10	80	0	
10	81	0	
10	82	0	
10	83	0	
10	84	0	
10	85	0	
10	86	0	
10	87	0	
10	88	0	
10	89	0	
10	90	0	
10	91	0	
10	92	0	
10	93	0	
10	94	0	
10	95	0	
10	96	0	
10	97	0	
10	98	0	
10	99	0	
10	100	0	
11	0	0	
11	1	0	
11	2	0	
11	3	0	
11	4	0	
11	5	0	
11	6	0	
11	7	0	
11	8	0	
11	9	0	
11	10	0	
11	11	0	
11	12	0	
11	13	0	
11	14	0	
11	15	0	
11	16	0	
11	17	0	
11	18	0	
11	19	0	
11	20	0	
11	21	0	
11	22	0	
11	23	0	
11	24	0	
11	25	0	
11	26	0	
11	27	0	
11	28	0	
11	29	0	
11	30	0	
11	31	0	
11	32	0	
11	33	0	
11	34	0	
11	35	0	
11	36	0	
11	37	0	
11	38	0	
11	39	0	
11	40	0	
11	41	0	
11	42	0	
11	43	0	
11	44	0	
11	45	0	
11	46	0	
11	47	0	
11	48	0	
11	49	0	
11	50	0	
11	51	0	
11	52	0	
11	53	0	
11	54	0	
11	55	0	
11	56	0	
11	57	0	
11	58	0	
11	59	0	
11	60	0	
11	61	0	
11	62	0	
11	63	0	
11	64	0	
11	65	0	
11	66	0	
11	67	0	
11	68	0	
11	69	0	
11	70	0	
11	71	0	
11	72	0	
11	73	0	
11	74	0	
11	75	0	
11	76	0	
11	77	0	
11	78	0	
11	79	0	
11	80	0	
11	81	0	
11	82	0	
11	83	0	
11	84	0	
11	85	0	
11	86	0	
11	87	0	
11	88	0	
11	89	0	
11	90	0	
11	91	0	
11	92	0	
11	93	0	
11	94	0	
11	95	0	
11	96	0	
11	97	0	
11	98	0	
11	99	0	
11	100	0	
12	0	0	
12	1	0	
12	2	0	
12	3	0	
12	4	0	
12	5	0	
12	6	0	
12	7	0	
12	8	0	
12	9	0	
12	10	0	
12	11	0	
12	12	0	
12	13	0	
[...]
POINT_DATA	10201
VECTORS u0 float
0	0	0	
-3.09326e-007	-3.17239e-007	0	
-5.22045e-007	-5.45309e-007	0	
-7.25859e-007	-7.31581e-007	0	
-9.18631e-007	-8.95704e-007	0	
-1.102e-006	-1.04354e-006	0	
-1.27379e-006	-1.17977e-006	0	
-1.43301e-006	-1.30848e-006	0	
-1.58036e-006	-1.43305e-006	0	
-1.71771e-006	-1.55552e-006	0	
-1.84695e-006	-1.67678e-006	0	
-1.9696e-006	-1.79711e-006	0	
-2.08675e-006	-1.91653e-006	0	
-2.19921e-006	-2.03493e-006	0	
-2.30755e-006	-2.15222e-006	0	
-2.41224e-006	-2.26823e-006	0	
-2.51362e-006	-2.38277e-006	0	
-2.61191e-006	-2.49559e-006	0	
-2.70717e-006	-2.60638e-006	0	
-2.79929e-006	-2.71486e-006	0	
-2.88802e-006	-2.82081e-006	0	
-2.97303e-006	-2.92409e-006	0	
-3.05395e-006	-3.0247e-006	0	
-3.1305e-006	-3.12272e-006	0	
-3.20246e-006	-3.21829e-006	0	
-3.26969e-006	-3.31154e-006	0	
-3.33215e-006	-3.40262e-006	0	
-3.38982e-006	-3.49165e-006	0	
-3.44273e-006	-3.57871e-006	0	
-3.49091e-006	-3.66388e-006	0	
-3.53441e-006	-3.74721e-006	0	
-3.57325e-006	-3.82875e-006	0	
-3.60747e-006	-3.90855e-006	0	
-3.63709e-006	-3.98665e-006	0	
-3.66216e-006	-4.06311e-006	0	
-3.6827e-006	-4.13797e-006	0	
-3.69874e-006	-4.21129e-006	0	
-3.71033e-006	-4.28311e-006	0	
-3.7175e-006	-4.3535e-006	0	
-3.72031e-006	-4.42251e-006	0	
-3.71881e-006	-4.4902e-006	0	
-3.71307e-006	-4.55661e-006	0	
-3.70314e-006	-4.62179e-006	0	
-3.68911e-006	-4.6858e-006	0	
-3.67105e-006	-4.74866e-006	0	
-3.64905e-006	-4.81043e-006	0	
-3.6232e-006	-4.87113e-006	0	
-3.59359e-006	-4.93079e-006	0	
-3.56032e-006	-4.98943e-006	0	
-3.52349e-006	-5.04707e-006	0	
-3.48323e-006	-5.10371e-006	0	
-3.43963e-006	-5.15936e-006	0	
-3.39281e-006	-5.214e-006	0	
-3.34289e-006	-5.26761e-006	0	
-3.28998e-006	-5.32017e-006	0	
-3.2342e-006	-5.37163e-006	0	
-3.17565e-006	-5.42195e-006	0	
-3.11443e-006	-5.47107e-006	0	
-3.05064e-006	-5.51891e-006	0	
-2.98437e-006	-5.56541e-006	0	
-2.91568e-006	-5.61048e-006	0	
-2.84463e-006	-5.65403e-006	0	
-2.77126e-006	-5.69596e-006	0	
-2.69561e-006	-5.73619e-006	0	
-2.61768e-006	-5.77462e-006	0	
-2.53749e-006	-5.81116e-006	0	
-2.45499e-006	-5.84571e-006	0	
-2.37017e-006	-5.87819e-006	0	
-2.28298e-006	-5.90854e-006	0	
-2.19335e-006	-5.93667e-006	0	
-2.10121e-006	-5.96255e-006	0	
-2.00649e-006	-5.98611e-006	0	
-1.90909e-006	-6.00733e-006	0	
-1.8089e-006	-6.0262e-006	0	
-1.70584e-006	-6.04271e-006	0	
-1.59978e-006	-6.05687e-006	0	
-1.49062e-006	-6.06873e-006	0	
-1.37825e-006	-6.07833e-006	0	
-1.26258e-006	-6.08573e-006	0	
-1.14349e-006	-6.09104e-006	0	
-1.02092e-006	-6.09435e-006	0	
-8.94774e-007	-6.0958e-006	0	
-7.65003e-007	-6.09553e-006	0	
-6.31568e-007	-6.09371e-006	0	
-4.9445e-007	-6.09052e-006	0	
-3.5366e-007	-6.08615e-006	0	
-2.09237e-007	-6.08083e-006	0	
-6.12543e-008	-6.07477e-006	0	
9.01781e-008	-6.06821e-006	0	
2.4491e-007	-6.06139e-006	0	
4.02747e-007	-6.05455e-006	0	
5.63448e-007	-6.04793e-006	0	
7.26725e-007	-6.04175e-006	0	
8.92236e-007	-6.03622e-006	0	
1.05959e-006	-6.03151e-006	0	
1.22835e-006	-6.02776e-006	0	
1.39805e-006	-6.02503e-006	0	
1.56817e-006	-6.02333e-006	0	
1.73825e-006	-6.02251e-006	0	
1.9079e-006	-6.0223e-006	0	
2.07708e-006	-6.02229e-006	0	
0	0	0	
-2.11165e-007	-1.76286e-007	0	
-4.42878e-007	-3.77343e-007	0	
-6.52421e-007	-5.59794e-007	0	
-8.52185e-007	-7.25833e-007	0	
-1.04079e-006	-8.79128e-007	0	
-1.21623e-006	-1.02295e-006	0	
-1.37749e-006	-1.16048e-006	0	
-1.52594e-006	-1.29385e-006	0	
-1.664e-006	-1.42431e-006	0	
-1.79384e-006	-1.55251e-006	0	
-1.91705e-006	-1.67875e-006	0	
-2.03475e-006	-1.80325e-006	0	
-2.14777e-006	-1.92613e-006	0	
-2.2567e-006	-2.04742e-006	0	
-2.36202e-006	-2.1671e-006	0	
-2.46411e-006	-2.28509e-006	0	
-2.5632e-006	-2.40126e-006	0	
-2.65938e-006	-2.51543e-006	0	
-2.75253e-006	-2.6274e-006	0	
-2.84236e-006	-2.73703e-006	0	
-2.92848e-006	-2.84424e-006	0	
-3.01051e-006	-2.949e-006	0	
-3.08811e-006	-3.05138e-006	0	
-3.16105e-006	-3.15145e-006	0	
-3.22923e-006	-3.24931e-006	0	
-3.29258e-006	-3.34505e-006	0	
-3.35111e-006	-3.43875e-006	0	
-3.40484e-006	-3.53048e-006	0	
-3.45383e-006	-3.62029e-006	0	
-3.49811e-006	-3.70823e-006	0	
-3.53771e-006	-3.79435e-006	0	
-3.57267e-006	-3.8787e-006	0	
-3.60302e-006	-3.96132e-006	0	
-3.62879e-006	-4.04226e-006	0	
-3.65001e-006	-4.12157e-006	0	
-3.66671e-006	-4.1993e-006	0	
-3.67893e-006	-4.27549e-006	0	
-3.68672e-006	-4.35021e-006	0	
-3.69012e-006	-4.42349e-006	0	
-3.68919e-006	-4.4954e-006	0	
-3.684e-006	-4.56596e-006	0	
-3.6746e-006	-4.63524e-006	0	
-3.66108e-006	-4.70326e-006	0	
-3.64352e-006	-4.77007e-006	0	
-3.622e-006	-4.8357e-006	0	
-3.59662e-006	-4.90017e-006	0	
-3.56746e-006	-4.96352e-006	0	
-3.53464e-006	-5.02575e-006	0	
-3.49827e-006	-5.08688e-006	0	
-3.45845e-006	-5.14691e-006	0	
-3.4153e-006	-5.20584e-006	0	
-3.36893e-006	-5.26366e-006	0	
-3.31948e-006	-5.32035e-006	0	
-3.26705e-006	-5.37589e-006	0	
-3.21176e-006	-5.43023e-006	0	
-3.15373e-006	-5.48334e-006	0	
-3.09306e-006	-5.53515e-006	0	
-3.02985e-006	-5.58562e-006	0	
-2.96418e-006	-5.63466e-006	0	
-2.89614e-006	-5.68222e-006	0	
-2.82576e-006	-5.72821e-006	0	
-2.75312e-006	-5.77256e-006	0	
-2.67822e-006	-5.81517e-006	0	
-2.60109e-006	-5.85598e-006	0	
-2.52172e-006	-5.8949e-006	0	
-2.44009e-006	-5.93186e-006	0	
-2.35616e-006	-5.96678e-006	0	
-2.26989e-006	-5.9996e-006	0	
-2.18121e-006	-6.03027e-006	0	
-2.09005e-006	-6.05874e-006	0	
-1.99631e-006	-6.08498e-006	0	
-1.8999e-006	-6.10895e-006	0	
-1.80071e-006	-6.13064e-006	0	
-1.69863e-006	-6.15007e-006	0	
-1.59356e-006	-6.16724e-006	0	
-1.48537e-006	-6.18219e-006	0	
-1.37394e-006	-6.19496e-006	0	
-1.25917e-006	-6.20562e-006	0	
-1.14096e-006	-6.21426e-006	0	
-1.0192e-006	-6.22095e-006	0	
-8.93824e-007	-6.22583e-006	0	
-7.64755e-007	-6.22901e-006	0	
-6.3195e-007	-6.23066e-006	0	
-4.95387e-007	-6.23091e-006	0	
-3.55069e-007	-6.22995e-006	0	
-2.1103e-007	-6.22797e-006	0	
-6.33388e-008	-6.22515e-006	0	
8.78968e-008	-6.22169e-006	0	
2.42528e-007	-6.2178e-006	0	
4.00359e-007	-6.21368e-006	0	
5.61147e-007	-6.20953e-006	0	
7.24597e-007	-6.20552e-006	0	
8.90358e-007	-6.20183e-006	0	
1.05803e-006	-6.19861e-006	0	
1.22715e-006	-6.19594e-006	0	
1.39722e-006	-6.19391e-006	0	
1.56771e-006	-6.19252e-006	0	
1.73809e-006	-6.19172e-006	0	
1.90794e-006	-6.1914e-006	0	
2.07709e-006	-6.19135e-006	0	
0	0	0	
-1.80778e-007	-1.30224e-007	0	
-3.81621e-007	-2.7406e-007	0	
-5.87327e-007	-4.31385e-007	0	
-7.89566e-007	-5.87322e-007	0	
-9.8138e-007	-7.36784e-007	0	
-1.15877e-006	-8.81985e-007	0	
-1.32076e-006	-1.02341e-006	0	
-1.46923e-006	-1.1622e-006	0	
-1.60769e-006	-1.29897e-006	0	
-1.73833e-006	-1.43304e-006	0	
-1.8623e-006	-1.56458e-006	0	
-1.98074e-006	-1.69389e-006	0	
-2.09449e-006	-1.82118e-006	0	
-2.20411e-006	-1.94653e-006	0	
-2.3101e-006	-2.07007e-006	0	
-2.41289e-006	-2.19185e-006	0	
-2.51277e-006	-2.3118e-006	0	
-2.60986e-006	-2.42977e-006	0	
-2.70405e-006	-2.54558e-006	0	
-2.79499e-006	-2.6591e-006	0	
-2.88224e-006	-2.77026e-006	0	
-2.96534e-006	-2.87908e-006	0	
-3.04394e-006	-2.98563e-006	0	
-3.11784e-006	-3.09e-006	0	
-3.1869e-006	-3.19225e-006	0	
-3.25111e-006	-3.29245e-006	0	
-3.31048e-006	-3.39066e-006	0	
-3.36504e-006	-3.4869e-006	0	
-3.41483e-006	-3.58123e-006	0	
-3.45989e-006	-3.67367e-006	0	
-3.50027e-006	-3.76426e-006	0	
-3.53599e-006	-3.85305e-006	0	
-3.56709e-006	-3.94007e-006	0	
-3.59358e-006	-4.02538e-006	0	
-3.61549e-006	-4.10902e-006	0	
-3.63287e-006	-4.19103e-006	0	
-3.64575e-006	-4.27147e-006	0	
-3.65417e-006	-4.35039e-006	0	
-3.65818e-006	-4.42783e-006	0	
-3.65784e-006	-4.50384e-006	0	
-3.65322e-006	-4.57845e-006	0	
-3.64438e-006	-4.65172e-006	0	
-3.6314e-006	-4.72367e-006	0	
-3.61436e-006	-4.79434e-006	0	
-3.59335e-006	-4.86376e-006	0	
-3.56846e-006	-4.93196e-006	0	
-3.5398e-006	-4.99894e-006	0	
-3.50746e-006	-5.06474e-006	0	
-3.47157e-006	-5.12935e-006	0	
-3.43223e-006	-5.19278e-006	0	
-3.38956e-006	-5.25502e-006	0	
-3.34369e-006	-5.31607e-006	0	
-3.29473e-006	-5.37591e-006	0	
-3.24281e-006	-5.43451e-006	0	
-3.18805e-006	-5.49184e-006	0	
-3.13057e-006	-5.54786e-006	0	
-3.07047e-006	-5.60252e-006	0	
-3.00786e-006	-5.65576e-006	0	
-2.94282e-006	-5.70753e-006	0	
-2.87543e-006	-5.75777e-006	0	
-2.80575e-006	-5.80639e-006	0	
-2.73383e-006	-5.85334e-006	0	
-2.6597e-006	-5.89854e-006	0	
-2.58336e-006	-5.94192e-006	0	
-2.50482e-006	-5.98341e-006	0	
-2.42405e-006	-6.02294e-006	0	
-2.34102e-006	-6.06046e-006	0	
-2.25566e-006	-6.09589e-006	0	
-2.16792e-006	-6.12921e-006	0	
-2.07771e-006	-6.16037e-006	0	
-1.98494e-006	-6.18933e-006	0	
-1.8895e-006	-6.21608e-006	0	
-1.79129e-006	-6.2406e-006	0	
-1.6902e-006	-6.2629e-006	0	
-1.58609e-006	-6.283e-006	0	
-1.47884e-006	-6.30093e-006	0	
-1.36835e-006	-6.31672e-006	0	
-1.25448e-006	-6.33044e-006	0	
-1.13713e-006	-6.34216e-006	0	
-1.0162e-006	-6.35197e-006	0	
-8.91587e-007	-6.35995e-006	0	
-7.63233e-007	-6.36624e-006	0	
-6.31081e-007	-6.37096e-006	0	
-4.95101e-007	-6.37424e-006	0	
-3.55293e-007	-6.37625e-006	0	
-2.11685e-007	-6.37714e-006	0	
-6.43435e-008	-6.37707e-006	0	
8.66271e-008	-6.37622e-006	0	
2.41079e-007	-6.37478e-006	0	
3.98816e-007	-6.3729e-006	0	
5.59594e-007	-6.37077e-006	0	
7.23112e-007	-6.36853e-006	0	
8.89016e-007	-6.36635e-006	0	
1.05689e-006	-6.36435e-006	0	
1.22627e-006	-6.36263e-006	0	
1.39665e-006	-6.36129e-006	0	
1.56746e-006	-6.36036e-006	0	
1.73817e-006	-6.35988e-006	0	
1.90826e-006	-6.35979e-006	0	
2.0773e-006	-6.35995e-006	0	
0	0	0	
-1.88852e-007	-9.03591e-008	0	
-3.44033e-007	-1.93757e-007	0	
-5.36258e-007	-3.27361e-007	0	
-7.37723e-007	-4.61576e-007	0	
-9.24875e-007	-6.08577e-007	0	
-1.10564e-006	-7.54338e-007	0	
-1.26542e-006	-8.95511e-007	0	
-1.41061e-006	-1.03956e-006	0	
-1.54969e-006	-1.1818e-006	0	
-1.68129e-006	-1.32028e-006	0	
-1.80573e-006	-1.45599e-006	0	
-1.92489e-006	-1.58974e-006	0	
-2.03951e-006	-1.72104e-006	0	
-2.1498e-006	-1.8502e-006	0	
-2.25636e-006	-1.97754e-006	0	
-2.35973e-006	-2.10321e-006	0	
-2.46032e-006	-2.22712e-006	0	
-2.55834e-006	-2.34915e-006	0	
-2.65367e-006	-2.46903e-006	0	
-2.74587e-006	-2.58657e-006	0	
-2.83434e-006	-2.7017e-006	0	
-2.91855e-006	-2.81452e-006	0	
-2.99815e-006	-2.92515e-006	0	
-3.07294e-006	-3.03369e-006	0	
-3.14285e-006	-3.14022e-006	0	
-3.20787e-006	-3.24478e-006	0	
-3.26804e-006	-3.34738e-006	0	
-3.3234e-006	-3.44804e-006	0	
-3.37399e-006	-3.54677e-006	0	
-3.41986e-006	-3.6436e-006	0	
-3.46102e-006	-3.73856e-006	0	
-3.49752e-006	-3.83167e-006	0	
-3.52937e-006	-3.92299e-006	0	
-3.5566e-006	-4.01254e-006	0	
-3.57924e-006	-4.10039e-006	0	
-3.59731e-006	-4.18658e-006	0	
-3.61086e-006	-4.27116e-006	0	
-3.61993e-006	-4.35417e-006	0	
-3.62457e-006	-4.43566e-006	0	
-3.62484e-006	-4.51566e-006	0	
-3.6208e-006	-4.59424e-006	0	
-3.61254e-006	-4.67141e-006	0	
-3.60011e-006	-4.74721e-006	0	
-3.58362e-006	-4.82167e-006	0	
-3.56314e-006	-4.89483e-006	0	
-3.53877e-006	-4.9667e-006	0	
-3.51062e-006	-5.03729e-006	0	
-3.47879e-006	-5.10663e-006	0	
-3.4434e-006	-5.17471e-006	0	
-3.40456e-006	-5.24155e-006	0	
-3.36239e-006	-5.30714e-006	0	
-3.31702e-006	-5.37146e-006	0	
-3.26858e-006	-5.43451e-006	0	
-3.21719e-006	-5.49625e-006	0	
-3.16298e-006	-5.55667e-006	0	
-3.10605e-006	-5.61571e-006	0	
-3.04654e-006	-5.67334e-006	0	
-2.98454e-006	-5.72951e-006	0	
-2.92014e-006	-5.78416e-006	0	
-2.85342e-006	-5.83723e-006	0	
-2.78445e-006	-5.88866e-006	0	
-2.71327e-006	-5.93838e-006	0	
-2.6399e-006	-5.98633e-006	0	
-2.56438e-006	-6.03244e-006	0	
-2.48667e-006	-6.07665e-006	0	
-2.40677e-006	-6.11891e-006	0	
-2.32463e-006	-6.15914e-006	0	
-2.2402e-006	-6.19731e-006	0	
-2.1534e-006	-6.23337e-006	0	
-2.06415e-006	-6.26728e-006	0	
-1.97235e-006	-6.29901e-006	0	
-1.8779e-006	-6.32855e-006	0	
-1.78068e-006	-6.35589e-006	0	
-1.68056e-006	-6.38104e-006	0	
-1.57743e-006	-6.40399e-006	0	
-1.47115e-006	-6.42479e-006	0	
-1.3616e-006	-6.44346e-006	0	
-1.24866e-006	-6.46006e-006	0	
-1.13219e-006	-6.47466e-006	0	
-1.01211e-006	-6.48733e-006	0	
-8.88305e-007	-6.49815e-006	0	
-7.60704e-007	-6.50723e-006	0	
-6.29248e-007	-6.51469e-006	0	
-4.93901e-007	-6.52064e-006	0	
-3.54657e-007	-6.52523e-006	0	
-2.11541e-007	-6.52858e-006	0	
-6.46146e-008	-6.53086e-006	0	
8.60218e-008	-6.53222e-006	0	
2.40222e-007	-6.53281e-006	0	
3.97793e-007	-6.53278e-006	0	
5.58488e-007	-6.5323e-006	0	
7.22008e-007	-6.53152e-006	0	
8.87996e-007	-6.53056e-006	0	
1.05604e-006	-6.52958e-006	0	
1.22566e-006	-6.52867e-006	0	
1.39635e-006	-6.52796e-006	0	
1.56754e-006	-6.52752e-006	0	
1.73864e-006	-6.52742e-006	0	
1.90906e-006	-6.52765e-006	0	
2.07812e-006	-6.52811e-006	0	
0	0	0	
-2.52452e-007	-9.19167e-008	0	
-3.26588e-007	-1.26081e-007	0	
-5.08376e-007	-1.74895e-007	0	
-6.79308e-007	-3.34078e-007	0	
-8.68492e-007	-4.96255e-007	0	
-1.06611e-006	-6.30154e-007	0	
-1.20795e-006	-7.75383e-007	0	
-1.34787e-006	-9.29118e-007	0	
-1.49261e-006	-1.07535e-006	0	
-1.62421e-006	-1.21397e-006	0	
-1.74701e-006	-1.35407e-006	0	
-1.86762e-006	-1.49195e-006	0	
-1.9834e-006	-1.62637e-006	0	
-2.09395e-006	-1.75865e-006	0	
-2.20078e-006	-1.88975e-006	0	
-2.3046e-006	-2.01919e-006	0	
-2.40569e-006	-2.1471e-006	0	
-2.50457e-006	-2.27334e-006	0	
-2.60123e-006	-2.39748e-006	0	
-2.69496e-006	-2.5191e-006	0	
-2.78485e-006	-2.63819e-006	0	
-2.87024e-006	-2.75497e-006	0	
-2.9508e-006	-2.86965e-006	0	
-3.02642e-006	-2.98235e-006	0	
-3.09711e-006	-3.09313e-006	0	
-3.1629e-006	-3.20199e-006	0	
-3.22385e-006	-3.30892e-006	0	
-3.28e-006	-3.41391e-006	0	
-3.3314e-006	-3.51697e-006	0	
-3.37807e-006	-3.6181e-006	0	
-3.42004e-006	-3.71731e-006	0	
-3.45734e-006	-3.81465e-006	0	
-3.48997e-006	-3.91015e-006	0	
-3.51796e-006	-4.00385e-006	0	
-3.54133e-006	-4.0958e-006	0	
-3.56011e-006	-4.18605e-006	0	
-3.57435e-006	-4.27465e-006	0	
-3.58408e-006	-4.36165e-006	0	
-3.58936e-006	-4.44709e-006	0	
-3.59025e-006	-4.53101e-006	0	
-3.58682e-006	-4.61345e-006	0	
-3.57914e-006	-4.69444e-006	0	
-3.56728e-006	-4.77403e-006	0	
-3.55134e-006	-4.85223e-006	0	
-3.53141e-006	-4.92907e-006	0	
-3.50757e-006	-5.00457e-006	0	
-3.47995e-006	-5.07874e-006	0	
-3.44863e-006	-5.15161e-006	0	
-3.41375e-006	-5.22317e-006	0	
-3.37542e-006	-5.29343e-006	0	
-3.33376e-006	-5.36239e-006	0	
-3.28891e-006	-5.43003e-006	0	
-3.24099e-006	-5.49634e-006	0	
-3.19013e-006	-5.56131e-006	0	
-3.13646e-006	-5.62489e-006	0	
-3.0801e-006	-5.68706e-006	0	
-3.02117e-006	-5.74778e-006	0	
-2.95979e-006	-5.80699e-006	0	
-2.89603e-006	-5.86465e-006	0	
-2.82999e-006	-5.9207e-006	0	
-2.76173e-006	-5.97508e-006	0	
-2.6913e-006	-6.02772e-006	0	
-2.61872e-006	-6.07856e-006	0	
-2.54401e-006	-6.12755e-006	0	
-2.46716e-006	-6.17462e-006	0	
-2.38814e-006	-6.21971e-006	0	
-2.30692e-006	-6.26278e-006	0	
-2.22343e-006	-6.30377e-006	0	
-2.13759e-006	-6.34264e-006	0	
-2.04932e-006	-6.37937e-006	0	
-1.95852e-006	-6.41391e-006	0	
-1.86508e-006	-6.44626e-006	0	
-1.76887e-006	-6.4764e-006	0	
-1.66978e-006	-6.50434e-006	0	
-1.56766e-006	-6.53008e-006	0	
-1.46239e-006	-6.55365e-006	0	
-1.35382e-006	-6.57508e-006	0	
-1.24184e-006	-6.59441e-006	0	
-1.12631e-006	-6.6117e-006	0	
-1.00713e-006	-6.62702e-006	0	
-8.84186e-007	-6.64044e-006	0	
-7.57398e-007	-6.65205e-006	0	
-6.26701e-007	-6.66195e-006	0	
-4.92054e-007	-6.67027e-006	0	
-3.53443e-007	-6.6771e-006	0	
-2.10888e-007	-6.68259e-006	0	
-6.44462e-008	-6.68687e-006	0	
8.57872e-008	-6.69008e-006	0	
2.39671e-007	-6.69236e-006	0	
3.97014e-007	-6.69386e-006	0	
5.57576e-007	-6.69473e-006	0	
7.21059e-007	-6.69512e-006	0	
8.8711e-007	-6.69516e-006	0	
1.05532e-006	-6.695e-006	0	
1.22521e-006	-6.69477e-006	0	
1.39627e-006	-6.69459e-006	0	
1.56793e-006	-6.69458e-006	0	
1.73955e-006	-6.69484e-006	0	
1.91046e-006	-6.69539e-006	0	
2.07983e-006	-6.69622e-006	0	
0	0	0	
-2.60771e-007	-1.47363e-007	0	
-3.61597e-007	-1.6381e-007	0	
-5.54265e-007	-2.13672e-007	0	
-6.3735e-007	-2.63346e-007	0	
-8.09254e-007	-3.27919e-007	0	
-1.04272e-006	-5.12617e-007	0	
-1.13293e-006	-6.76881e-007	0	
-1.28202e-006	-8.41475e-007	0	
-1.44719e-006	-9.72515e-007	0	
-1.56419e-006	-1.1132e-006	0	
-1.68401e-006	-1.26132e-006	0	
-1.81132e-006	-1.40218e-006	0	
-1.92738e-006	-1.53603e-006	0	
-2.03598e-006	-1.67215e-006	0	
-2.14359e-006	-1.80707e-006	0	
-2.24777e-006	-1.93968e-006	0	
-2.34862e-006	-2.07126e-006	0	
-2.44815e-006	-2.20213e-006	0	
-2.54661e-006	-2.33073e-006	0	
-2.64236e-006	-2.4564e-006	0	
-2.73389e-006	-2.57936e-006	0	
-2.82044e-006	-2.70009e-006	0	
-2.90189e-006	-2.81888e-006	0	
-2.97829e-006	-2.93581e-006	0	
-3.04971e-006	-3.05089e-006	0	
-3.11624e-006	-3.16406e-006	0	
-3.17794e-006	-3.27531e-006	0	
-3.23488e-006	-3.38459e-006	0	
-3.2871e-006	-3.4919e-006	0	
-3.3346e-006	-3.59724e-006	0	
-3.37741e-006	-3.70062e-006	0	
-3.41553e-006	-3.80207e-006	0	
-3.44896e-006	-3.90164e-006	0	
-3.47773e-006	-3.99937e-006	0	
-3.50186e-006	-4.09532e-006	0	
-3.52137e-006	-4.18953e-006	0	
-3.5363e-006	-4.28205e-006	0	
-3.54671e-006	-4.37294e-006	0	
-3.55264e-006	-4.46224e-006	0	
-3.55416e-006	-4.54998e-006	0	
-3.55133e-006	-4.63622e-006	0	
-3.54424e-006	-4.72097e-006	0	
-3.53296e-006	-4.80427e-006	0	
-3.51758e-006	-4.88615e-006	0	
-3.49819e-006	-4.96664e-006	0	
-3.47489e-006	-5.04574e-006	0	
-3.44779e-006	-5.12348e-006	0	
-3.417e-006	-5.19986e-006	0	
-3.38262e-006	-5.27491e-006	0	
-3.3448e-006	-5.3486e-006	0	
-3.30365e-006	-5.42096e-006	0	
-3.2593e-006	-5.49195e-006	0	
-3.21189e-006	-5.56159e-006	0	
-3.16155e-006	-5.62984e-006	0	
-3.10842e-006	-5.69667e-006	0	
-3.05262e-006	-5.76206e-006	0	
-2.99428e-006	-5.82597e-006	0	
-2.9335e-006	-5.88834e-006	0	
-2.8704e-006	-5.94913e-006	0	
-2.80504e-006	-6.00828e-006	0	
-2.7375e-006	-6.06573e-006	0	
-2.66782e-006	-6.12141e-006	0	
-2.59604e-006	-6.17528e-006	0	
-2.52217e-006	-6.22726e-006	0	
-2.44619e-006	-6.2773e-006	0	
-2.36809e-006	-6.32534e-006	0	
-2.2878e-006	-6.37133e-006	0	
-2.20528e-006	-6.41522e-006	0	
-2.12044e-006	-6.45698e-006	0	
-2.0332e-006	-6.49657e-006	0	
-1.94344e-006	-6.53395e-006	0	
-1.85105e-006	-6.56911e-006	0	
-1.75591e-006	-6.60205e-006	0	
-1.65788e-006	-6.63274e-006	0	
-1.55683e-006	-6.66121e-006	0	
-1.45262e-006	-6.68747e-006	0	
-1.3451e-006	-6.71154e-006	0	
-1.23415e-006	-6.73347e-006	0	
-1.11963e-006	-6.75329e-006	0	
-1.00142e-006	-6.77107e-006	0	
-8.79413e-007	-6.78687e-006	0	
-7.53516e-007	-6.80078e-006	0	
-6.23658e-007	-6.81289e-006	0	
-4.89789e-007	-6.8233e-006	0	
-3.5189e-007	-6.83211e-006	0	
-2.09975e-007	-6.83944e-006	0	
-6.40906e-008	-6.84543e-006	0	
8.56718e-008	-6.8502e-006	0	
2.39178e-007	-6.85389e-006	0	
3.96245e-007	-6.85664e-006	0	
5.56638e-007	-6.8586e-006	0	
7.20066e-007	-6.85992e-006	0	
8.86184e-007	-6.86075e-006	0	
1.05459e-006	-6.86124e-006	0	
1.22481e-006	-6.86154e-006	0	
1.39633e-006	-6.86178e-006	0	
1.56857e-006	-6.86212e-006	0	
1.74088e-006	-6.86268e-006	0	
1.91251e-006	-6.86353e-006	0	
2.08259e-006	-6.86475e-006	0	
0	0	0	
-2.17586e-007	-1.09454e-007	0	
-3.97306e-007	-2.35665e-007	0	
-6.08712e-007	-3.6385e-007	0	
-6.80398e-007	-3.75661e-007	0	
-8.68284e-007	-4.37328e-007	0	
-1.06479e-006	-5.94545e-007	0	
-1.0699e-006	-6.43918e-007	0	
-1.21951e-006	-7.02389e-007	0	
-1.418e-006	-8.73565e-007	0	
-1.48729e-006	-1.02858e-006	0	
-1.61754e-006	-1.18646e-006	0	
-1.76632e-006	-1.31241e-006	0	
-1.8682e-006	-1.44859e-006	0	
-1.97358e-006	-1.59287e-006	0	
-2.08706e-006	-1.7307e-006	0	
-2.19029e-006	-1.86289e-006	0	
-2.28792e-006	-1.99909e-006	0	
-2.38844e-006	-2.13551e-006	0	
-2.48989e-006	-2.26859e-006	0	
-2.58837e-006	-2.39794e-006	0	
-2.68157e-006	-2.52469e-006	0	
-2.76914e-006	-2.64954e-006	0	
-2.85137e-006	-2.77267e-006	0	
-2.92847e-006	-2.89404e-006	0	
-3.0006e-006	-3.01352e-006	0	
-3.06785e-006	-3.13106e-006	0	
-3.13033e-006	-3.24662e-006	0	
-3.18808e-006	-3.36016e-006	0	
-3.24115e-006	-3.47166e-006	0	
-3.28952e-006	-3.58111e-006	0	
-3.33319e-006	-3.68855e-006	0	
-3.37216e-006	-3.79402e-006	0	
-3.40643e-006	-3.89755e-006	0	
-3.436e-006	-3.99921e-006	0	
-3.4609e-006	-4.09904e-006	0	
-3.48115e-006	-4.1971e-006	0	
-3.49679e-006	-4.29346e-006	0	
-3.50787e-006	-4.38814e-006	0	
-3.51446e-006	-4.48121e-006	0	
-3.51661e-006	-4.57271e-006	0	
-3.51439e-006	-4.66266e-006	0	
-3.50789e-006	-4.7511e-006	0	
-3.49718e-006	-4.83807e-006	0	
-3.48236e-006	-4.92359e-006	0	
-3.46351e-006	-5.00768e-006	0	
-3.44075e-006	-5.09036e-006	0	
-3.41416e-006	-5.17164e-006	0	
-3.38388e-006	-5.25155e-006	0	
-3.35001e-006	-5.33007e-006	0	