# vtk DataFile Version 4.1
vtk output
ASCII
DATASET UNSTRUCTURED_GRID

POINTS	30401	float
0	0	0	
0	1	0	
0	2	0	
0	3	0	
0	4	0	
0	5	0	
0	6	0	
0	7	0	
0	8	0	
0	9	0	
0	10	0	
0	11	0	
0	12	0	
0	13	0	
0	14	0	
0	15	0	
0	16	0	
0	17	0	
0	18	0	
0	19	0	
0	20	0	
0	21	0	
0	22	0	
0	23	0	
0	24	0	
0	25	0	
0	26	0	
0	27	0	
0	28	0	
0	29	0	
0	30	0	
0	31	0	
0	32	0	
0	33	0	
0	34	0	
0	35	0	
0	36	0	
0	37	0	
0	38	0	
0	39	0	
0	40	0	
0	41	0	
0	42	0	
0	43	0	
0	44	0	
0	45	0	
0	46	0	
0	47	0	
0	48	0	
0	49	0	
0	50	0	
0	51	0	
0	52	0	
0	53	0	
0	54	0	
0	55	0	
0	56	0	
0	57	0	
0	58	0	
0	59	0	
0	60	0	
0	61	0	
0	62	0	
0	63	0	
0	64	0	
0	65	0	
0	66	0	
0	67	0	
0	68	0	
0	69	0	
0	70	0	
0	71	0	
0	72	0	
0	73	0	
0	74	0	
0	75	0	
0	76	0	
0	77	0	
0	78	0	
0	79	0	
0	80	0	
0	81	0	
0	82	0	
0	83	0	
0	84	0	
0	85	0	
0	86	0	
0	87	0	
0	88	0	
0	89	0	
0	90	0	
0	91	0	
0	92	0	
0	93	0	
0	94	0	
0	95	0	
0	96	0	
0	97	0	
0	98	0	
0	99	0	
0	100	0	
1	0	0	
1	1	0	
1	2	0	
1	3	0	
1	4	0	
1	5	0	
1	6	0	
1	7	0	
1	8	0	
1	9	0	
1	10	0	
1	11	0	
1	12	0	
1	13	0	
1	14	0	
1	15	0	
1	16	0	
1	17	0	
1	18	0	
1	19	0	
1	20	0	
1	21	0	
1	22	0	
1	23	0	
1	24	0	
1	25	0	
1	26	0	
1	27	0	
1	28	0	
1	29	0	
1	30	0	
1	31	0	
1	32	0	
1	33	0	
1	34	0	
1	35	0	
1	36	0	
1	37	0	
1	38	0	
1	39	0	
1	40	0	
1	41	0	
1	42	0	
1	43	0	
1	44	0	
1	45	0	
1	46	0	
1	47	0	
1	48	0	
1	49	0	
1	50	0	
1	51	0	
1	52	0	
1	53	0	
1	54	0	
1	55	0	
1	56	0	
1	57	0	
1	58	0	
1	59	0	
1	60	0	
1	61	0	
1	62	0	
1	63	0	
1	64	0	
1	65	0	
1	66	0	
1	67	0	
1	68	0	
1	69	0	
1	70	0	
1	71	0	
1	72	0	
1	73	0	
1	74	0	
1	75	0	
1	76	0	
1	77	0	
1	78	0	
1	79	0	
1	80	0	
1	81	0	
1	82	0	
1	83	0	
1	84	0	
1	85	0	
1	86	0	
1	87	0	
1	88	0	
1	89	0	
1	90	0	
1	91	0	
1	92	0	
1	93	0	
1	94	0	
1	95	0	
1	96	0	
1	97	0	
1	98	0	
1	99	0	
1	100	0	
2	0	0	
2	1	0	
2	2	0	
2	3	0	
2	4	0	
2	5	0	
2	6	0	
2	7	0	
2	8	0	
2	9	0	
2	10	0	
2	11	0	
2	12	0	
2	13	0	
2	14	0	
2	15	0	
2	16	0	
2	17	0	
2	18	0	
2	19	0	
2	20	0	
2	21	0	
2	22	0	
2	23	0	
2	24	0	
2	25	0	
2	26	0	
2	27	0	
2	28	0	
2	29	0	
2	30	0	
2	31	0	
2	32	0	
2	33	0	
2	34	0	
2	35	0	
2	36	0	
2	37	0	
2	38	0	
2	39	0	
2	40	0	
2	41	0	
2	42	0	
2	43	0	
2	44	0	
2	45	0	
2	46	0	
2	47	0	
2	48	0	
2	49	0	
2	50	0	
2	51	0	
2	52	0	
2	53	0	
2	54	0	
2	55	0	
2	56	0	
2	57	0	
2	58	0	
2	59	0	
2	60	0	
2	61	0	
2	62	0	
2	63	0	
2	64	0	
2	65	0	
2	66	0	
2	67	0	
2	68	0	
2	69	0	
2	70	0	
2	71	0	
2	72	0	
2	73	0	
2	74	0	
2	75	0	
2	76	0	
2	77	0	
2	78	0	
2	79	0	
2	80	0	
2	81	0	
2	82	0	
2	83	0	
2	84	0	
2	85	0	
2	86	0	
2	87	0	
2	88	0	
2	89	0	
2	90	0	
2	91	0	
2	92	0	
2	93	0	
2	94	0	
2	95	0	
2	96	0	
2	97	0	
2	98	0	
2	99	0	
2	100	0	
3	0	0	
3	1	0	
3	2	0	
3	3	0	
3	4	0	
3	5	0	
3	6	0	
3	7	0	
3	8	0	
3	9	0	
3	10	0	
3	11	0	
3	12	0	
3	13	0	
3	14	0	
3	15	0	
3	16	0	
3	17	0	
3	18	0	
3	19	0	
3	20	0	
3	21	0	
3	22	0	
3	23	0	
3	24	0	
3	25	0	
3	26	0	
3	27	0	
3	28	0	
3	29	0	
3	30	0	
3	31	0	
3	32	0	
3	33	0	
3	34	0	
3	35	0	
3	36	0	
3	37	0	
3	38	0	
3	39	0	
3	40	0	
3	41	0	
3	42	0	
3	43	0	
3	44	0	
3	45	0	
3	46	0	
3	47	0	
3	48	0	
3	49	0	
3	50	0	
3	51	0	
3	52	0	
3	53	0	
3	54	0	
3	55	0	
3	56	0	
3	57	0	
3	58	0	
3	59	0	
3	60	0	
3	61	0	
3	62	0	
3	63	0	
3	64	0	
3	65	0	
3	66	0	
3	67	0	
3	68	0	
3	69	0	
3	70	0	
3	71	0	
3	72	0	
3	73	0	
3	74	0	
3	75	0	
3	76	0	
3	77	0	
3	78	0	
3	79	0	
3	80	0	
3	81	0	
3	82	0	
3	83	0	
3	84	0	
3	85	0	
3	86	0	
3	87	0	
3	88	0	
3	89	0	
3	90	0	
3	91	0	
3	92	0	
3	93	0	
3	94	0	
3	95	0	
3	96	0	
3	97	0	
3	98	0	
3	99	0	
3	100	0	
4	0	0	
4	1	0	
4	2	0	
4	3	0	
4	4	0	
4	5	0	
4	6	0	
4	7	0	
4	8	0	
4	9	0	
4	10	0	
4	11	0	
4	12	0	
4	13	0	
4	14	0	
4	15	0	
4	16	0	
4	17	0	
4	18	0	
4	19	0	
4	20	0	
4	21	0	
4	22	0	
4	23	0	
4	24	0	
4	25	0	
4	26	0	
4	27	0	
4	28	0	
4	29	0	
4	30	0	
4	31	0	
4	32	0	
4	33	0	
4	34	0	
4	35	0	
4	36	0	
4	37	0	
4	38	0	
4	39	0	
4	40	0	
4	41	0	
4	42	0	
4	43	0	
4	44	0	
4	45	0	
4	46	0	
4	47	0	
4	48	0	
4	49	0	
4	50	0	
4	51	0	
4	52	0	
4	53	0	
4	54	0	
4	55	0	
4	56	0	
4	57	0	
4	58	0	
4	59	0	
4	60	0	
4	61	0	
4	62	0	
4	63	0	
4	64	0	
4	65	0	
4	66	0	
4	67	0	
4	68	0	
4	69	0	
4	70	0	
4	71	0	
4	72	0	
4	73	0	
4	74	0	
4	75	0	
4	76	0	
4	77	0	
4	78	0	
4	79	0	
4	80	0	
4	81	0	
4	82	0	
4	83	0	
4	84	0	
4	85	0	
4	86	0	
4	87	0	
4	88	0	
4	89	0	
4	90	0	
4	91	0	
4	92	0	
4	93	0	
4	94	0	
4	95	0	
4	96	0	
4	97	0	
4	98	0	
4	99	0	
4	100	0	
5	0	0	
5	1	0	
5	2	0	
5	3	0	
5	4	0	
5	5	0	
5	6	0	
5	7	0	
5	8	0	
5	9	0	
5	10	0	
5	11	0	
5	12	0	
5	13	0	
5	14	0	
5	15	0	
5	16	0	
5	17	0	
5	18	0	
5	19	0	
5	20	0	
5	21	0	
5	22	0	
5	23	0	
5	24	0	
5	25	0	
5	26	0	
5	27	0	
5	28	0	
5	29	0	
5	30	0	
5	31	0	
5	32	0	
5	33	0	
5	34	0	
5	35	0	
5	36	0	
5	37	0	
5	38	0	
5	39	0	
5	40	0	
5	41	0	
5	42	0	
5	43	0	
5	44	0	
5	45	0	
5	46	0	
5	47	0	
5	48	0	
5	49	0	
5	50	0	
5	51	0	
5	52	0	
5	53	0	
5	54	0	
5	55	0	
5	56	0	
5	57	0	
5	58	0	
5	59	0	
5	60	0	
5	61	0	
5	62	0	
5	63	0	
5	64	0	
5	65	0	
5	66	0	
5	67	0	
5	68	0	
5	69	0	
5	70	0	
5	71	0	
5	72	0	
5	73	0	
5	74	0	
5	75	0	
5	76	0	
5	77	0	
5	78	0	
5	79	0	
5	80	0	
5	81	0	
5	82	0	
5	83	0	
5	84	0	
5	85	0	
5	86	0	
5	87	0	
5	88	0	
5	89	0	
5	90	0	
5	91	0	
5	92	0	
5	93	0	
5	94	0	
5	95	0	
5	96	0	
5	97	0	
5	98	0	
5	99	0	
5	100	0	
6	0	0	
6	1	0	
6	2	0	
6	3	0	
6	4	0	
6	5	0	
6	6	0	
6	7	0	
6	8	0	
6	9	0	
6	10	0	
6	11	0	
6	12	0	
6	13	0	
6	14	0	
6	15	0	
6	16	0	
6	17	0	
6	18	0	
6	19	0	
6	20	0	
6	21	0	
6	22	0	
6	23	0	
6	24	0	
6	25	0	
6	26	0	
6	27	0	
6	28	0	
6	29	0	
6	30	0	
6	31	0	
6	32	0	
6	33	0	
6	34	0	
6	35	0	
6	36	0	
6	37	0	
6	38	0	
6	39	0	
6	40	0	
6	41	0	
6	42	0	
6	43	0	
6	44	0	
6	45	0	
6	46	0	
6	47	0	
6	48	0	
6	49	0	
6	50	0	
6	51	0	
6	52	0	
6	53	0	
6	54	0	
6	55	0	
6	56	0	
6	57	0	
6	58	0	
6	59	0	
6	60	0	
6	61	0	
6	62	0	
6	63	0	
6	64	0	
6	65	0	
6	66	0	
6	67	0	
6	68	0	
6	69	0	
6	70	0	
6	71	0	
6	72	0	
6	73	0	
6	74	0	
6	75	0	
6	76	0	
6	77	0	
6	78	0	
6	79	0	
6	80	0	
6	81	0	
6	82	0	
6	83	0	
6	84	0	
6	85	0	
6	86	0	
6	87	0	
6	88	0	
6	89	0	
6	90	0	
6	91	0	
6	92	0	
6	93	0	
6	94	0	
6	95	0	
6	96	0	
6	97	0	
6	98	0	
6	99	0	
6	100	0	
7	0	0	
7	1	0	
7	2	0	
7	3	0	
7	4	0	
7	5	0	
7	6	0	
7	7	0	
7	8	0	
7	9	0	
7	10	0	
7	11	0	
7	12	0	
7	13	0	
7	14	0	
7	15	0	
7	16	0	
7	17	0	
7	18	0	
7	19	0	
7	20	0	
7	21	0	
7	22	0	
7	23	0	
7	24	0	
7	25	0	
7	26	0	
7	27	0	
7	28	0	
7	29	0	
7	30	0	
7	31	0	
7	32	0	
7	33	0	
7	34	0	
7	35	0	
7	36	0	
7	37	0	
7	38	0	
7	39	0	
7	40	0	
7	41	0	
7	42	0	
7	43	0	
7	44	0	
7	45	0	
7	46	0	
7	47	0	
7	48	0	
7	49	0	
7	50	0	
7	51	0	
7	52	0	
7	53	0	
7	54	0	
7	55	0	
7	56	0	
7	57	0	
7	58	0	
7	59	0	
7	60	0	
7	61	0	
7	62	0	
7	63	0	
7	64	0	
7	65	0	
7	66	0	
7	67	0	
7	68	0	
7	69	0	
7	70	0	
7	71	0	
7	72	0	
7	73	0	
7	74	0	
7	75	0	
7	76	0	
7	77	0	
7	78	0	
7	79	0	
7	80	0	
7	81	0	
7	82	0	
7	83	0	
7	84	0	
7	85	0	
7	86	0	
7	87	0	
7	88	0	
7	89	0	
7	90	0	
7	91	0	
7	92	0	
7	93	0	
7	94	0	
7	95	0	
7	96	0	
7	97	0	
7	98	0	
7	99	0	
7	100	0	
8	0	0	
8	1	0	
8	2	0	
8	3	0	
8	4	0	
8	5	0	
8	6	0	
8	7	0	
8	8	0	
8	9	0	
8	10	0	
8	11	0	
8	12	0	
8	13	0	
8	14	0	
8	15	0	
8	16	0	
8	17	0	
8	18	0	
8	19	0	
8	20	0	
8	21	0	
8	22	0	
8	23	0	
8	24	0	
8	25	0	
8	26	0	
8	27	0	
8	28	0	
8	29	0	
8	30	0	
8	31	0	
8	32	0	
8	33	0	
8	34	0	
8	35	0	
8	36	0	
8	37	0	
8	38	0	
8	39	0	
8	40	0	
8	41	0	
8	42	0	
8	43	0	
8	44	0	
8	45	0	
8	46	0	
8	47	0	
8	48	0	
8	49	0	
8	50	0	
8	51	0	
8	52	0	
8	53	0	
8	54	0	
8	55	0	
8	56	0	
8	57	0	
8	58	0	
8	59	0	
8	60	0	
8	61	0	
8	62	0	
8	63	0	
8	64	0	
8	65	0	
8	66	0	
8	67	0	
8	68	0	
8	69	0	
8	70	0	
8	71	0	
8	72	0	
8	73	0	
8	74	0	
8	75	0	
8	76	0	
8	77	0	
8	78	0	
8	79	0	
8	80	0	
8	81	0	
8	82	0	
8	83	0	
8	84	0	
8	85	0	
8	86	0	
8	87	0	
8	88	0	
8	89	0	
8	90	0	
8	91	0	
8	92	0	
8	93	0	
8	94	0	
8	95	0	
8	96	0	
8	97	0	
8	98	0	
8	99	0	
8	100	0	
9	0	0	
9	1	0	
9	2	0	
9	3	0	
9	4	0	
9	5	0	
9	6	0	
9	7	0	
9	8	0	
9	9	0	
9	10	0	
9	11	0	
9	12	0	
9	13	0	
9	14	0	
9	15	0	
9	16	0	
9	17	0	
9	18	0	
9	19	0	
9	20	0	
9	21	0	
9	22	0	
9	23	0	
9	24	0	
9	25	0	
9	26	0	
9	27	0	
9	28	0	
9	29	0	
9	30	0	
9	31	0	
9	32	0	
9	33	0	
9	34	0	
9	35	0	
9	36	0	
9	37	0	
9	38	0	
9	39	0	
9	40	0	
9	41	0	
9	42	0	
9	43	0	
9	44	0	
9	45	0	
9	46	0	
9	47	0	
9	48	0	
9	49	0	
9	50	0	
9	51	0	
9	52	0	
9	53	0	
9	54	0	
9	55	0	
9	56	0	
9	57	0	
9	58	0	
9	59	0	
9	60	0	
9	61	0	
9	62	0	
9	63	0	
9	64	0	
9	65	0	
9	66	0	
9	67	0	
9	68	0	
9	69	0	
9	70	0	
9	71	0	
9	72	0	
9	73	0	
9	74	0	
9	75	0	
9	76	0	
9	77	0	
9	78	0	
9	79	0	
9	80	0	
9	81	0	
9	82	0	
9	83	0	
9	84	0	
9	85	0	
9	86	0	
9	87	0	
9	88	0	
9	89	0	
9	90	0	
9	91	0	
9	92	0	
9	93	0	
9	94	0	
9	95	0	
9	96	0	
9	97	0	
9	98	0	
9	99	0	
9	100	0	
10	0	0	
10	1	0	
10	2	0	
10	3	0	
10	4	0	
10	5	0	
10	6	0	
10	7	0	
10	8	0	
10	9	0	
10	10	0	
10	11	0	
10	12	0	
10	13	0	
10	14	0	
10	15	0	
10	16	0	
10	17	0	
10	18	0	
10	19	0	
10	20	0	
10	21	0	
10	22	0	
10	23	0	
10	24	0	
10	25	0	
10	26	0	
10	27	0	
10	28	0	
10	29	0	
10	30	0	
10	31	0	
10	32	0	
10	33	0	
10	34	0	
10	35	0	
10	36	0	
10	37	0	
10	38	0	
10	39	0	
10	40	0	
10	41	0	
10	42	0	
10	43	0	
10	44	0	
10	45	0	
10	46	0	
10	47	0	
10	48	0	
10	49	0	
10	50	0	
10	51	0	
10	52	0	
10	53	0	
10	54	0	
10	55	0	
10	56	0	
10	57	0	
10	58	0	
10	59	0	
10	60	0	
10	61	0	
10	62	0	
10	63	0	
10	64	0	
10	65	0	
10	66	0	
10	67	0	
10	68	0	
10	69	0	
10	70	0	
10	71	0	
10	72	0	
10	73	0	
10	74	0	
10	75	0	
10	76	0	
10	77	0	
10	78	0	
10	79	0	
10	80	0	
10	81	0	
10	82	0	
10	83	0	
10	84	0	
10	85	0	
10	86	0	
10	87	0	
10	88	0	
10	89	0	
10	90	0	
10	91	0	
10	92	0	
10	93	0	
10	94	0	
10	95	0	
10	96	0	
10	97	0	
10	98	0	
10	99	0	
10	100	0	
11	0	0	
11	1	0	
11	2	0	
11	3	0	
11	4	0	
11	5	0	
11	6	0	
11	7	0	
11	8	0	
11	9	0	
11	10	0	
11	11	0	
11	12	0	
11	13	0	
11	14	0	
11	15	0	
11	16	0	
11	17	0	
11	18	0	
11	19	0	
11	20	0	
11	21	0	
11	22	0	
11	23	0	
11	24	0	
11	25	0	
11	26	0	
11	27	0	
11	28	0	
11	29	0	
11	30	0	
11	31	0	
11	32	0	
11	33	0	
11	34	0	
11	35	0	
11	36	0	
11	37	0	
11	38	0	
11	39	0	
11	40	0	
11	41	0	
11	42	0	
11	43	0	
11	44	0	
11	45	0	
11	46	0	
11	47	0	
11	48	0	
11	49	0	
11	50	0	
11	51	0	
11	52	0	
11	53	0	
11	54	0	
11	55	0	
11	56	0	
11	57	0	
11	58	0	
11	59	0	
11	60	0	
11	61	0	
11	62	0	
11	63	0	
11	64	0	
11	65	0	
11	66	0	
11	67	0	
11	68	0	
11	69	0	
11	70	0	
11	71	0	
11	72	0	
11	73	0	
11	74	0	
11	75	0	
11	76	0	
11	77	0	
11	78	0	
11	79	0	
11	80	0	
11	81	0	
11	82	0	
11	83	0	
11	84	0	
11	85	0	
11	86	0	
11	87	0	
11	88	0	
11	89	0	
11	90	0	
11	91	0	
11	92	0	
11	93	0	
11	94	0	
11	95	0	
11	96	0	
11	97	0	
11	98	0	
11	99	0	
11	100	0	
12	0	0	
12	1	0	
12	2	0	
12	3	0	
12	4	0	
12	5	0	
12	6	0	
12	7	0	
12	8	0	
12	9	0	
12	10	0	
12	11	0	
12	12	0	
12	13	0	
[...]
POINT_DATA	30401
VECTORS d float
-2.47024e-017	-4.68674e-017	0	
-1.4896e-006	-1.59171e-006	0	
-3.17195e-006	-2.52131e-006	0	
-4.93152e-006	-3.07136e-006	0	
-6.58893e-006	-3.43562e-006	0	
-8.14195e-006	-3.71916e-006	0	
-9.66129e-006	-4.00059e-006	0	
-1.11781e-005	-4.28616e-006	0	
-1.26202e-005	-4.55449e-006	0	
-1.3987e-005	-4.82401e-006	0	
-1.52847e-005	-5.09498e-006	0	
-1.65164e-005	-5.36798e-006	0	
-1.76863e-005	-5.64294e-006	0	
-1.87984e-005	-5.91992e-006	0	
-1.98567e-005	-6.19891e-006	0	
-2.08652e-005	-6.47987e-006	0	
-2.18279e-005	-6.7628e-006	0	
-2.27486e-005	-7.04771e-006	0	
-2.36313e-005	-7.3346e-006	0	
-2.44801e-005	-7.6235e-006	0	
-2.5299e-005	-7.91447e-006	0	
-2.60921e-005	-8.20794e-006	0	
-2.68629e-005	-8.50506e-006	0	
-2.76156e-005	-8.80348e-006	0	
-2.83542e-005	-9.10355e-006	0	
-2.90816e-005	-9.40903e-006	0	
-2.98164e-005	-9.7308e-006	0	
-3.06296e-005	-1.00808e-005	0	
-3.15844e-005	-1.04404e-005	0	
-3.26899e-005	-1.07801e-005	0	
-3.38994e-005	-1.10706e-005	0	
-3.50975e-005	-1.12713e-005	0	
-3.61015e-005	-1.13719e-005	0	
-3.68008e-005	-1.14759e-005	0	
-3.7391e-005	-1.1653e-005	0	
-3.79498e-005	-1.18821e-005	0	
-3.84802e-005	-1.219e-005	0	
-3.91943e-005	-1.26188e-005	0	
-4.20241e-005	-1.5727e-005	0	
-4.34668e-005	-1.8005e-005	0	
-4.45317e-005	-2.00238e-005	0	
-4.54114e-005	-2.1761e-005	0	
-4.61336e-005	-2.3221e-005	0	
-4.66862e-005	-2.44347e-005	0	
-4.70587e-005	-2.54264e-005	0	
-4.72371e-005	-2.6206e-005	0	
-4.72013e-005	-2.67634e-005	0	
-4.68405e-005	-2.7007e-005	0	
-4.59574e-005	-2.7011e-005	0	
-4.52911e-005	-2.72693e-005	0	
-4.49461e-005	-2.79963e-005	0	
-4.4041e-005	-2.86647e-005	0	
-4.31133e-005	-2.95495e-005	0	
-4.2242e-005	-3.04415e-005	0	
-4.12576e-005	-3.13237e-005	0	
-4.01335e-005	-3.22129e-005	0	
-3.88329e-005	-3.31333e-005	0	
-3.74544e-005	-3.41686e-005	0	
-3.60851e-005	-3.52641e-005	0	
-3.46967e-005	-3.63913e-005	0	
-3.32765e-005	-3.75505e-005	0	
-3.18289e-005	-3.87383e-005	0	
-3.03587e-005	-3.99483e-005	0	
-2.88711e-005	-4.11732e-005	0	
-2.73759e-005	-4.24039e-005	0	
-2.58764e-005	-4.36299e-005	0	
-2.43744e-005	-4.48413e-005	0	
-2.28742e-005	-4.60307e-005	0	
-2.13756e-005	-4.71887e-005	0	
-1.98775e-005	-4.83095e-005	0	
-1.83815e-005	-4.93904e-005	0	
-1.68871e-005	-5.04259e-005	0	
-1.53926e-005	-5.14144e-005	0	
-1.38995e-005	-5.23522e-005	0	
-1.2409e-005	-5.32349e-005	0	
-1.09172e-005	-5.40616e-005	0	
-9.42315e-006	-5.48291e-005	0	
-7.9263e-006	-5.55373e-005	0	
-6.42348e-006	-5.6185e-005	0	
-4.91235e-006	-5.67692e-005	0	
-3.3875e-006	-5.72918e-005	0	
-1.84377e-006	-5.77523e-005	0	
-2.80015e-007	-5.81514e-005	0	
1.31152e-006	-5.84931e-005	0	
2.93424e-006	-5.8779e-005	0	
4.5868e-006	-5.90135e-005	0	
6.27907e-006	-5.91985e-005	0	
8.01411e-006	-5.93385e-005	0	
9.7877e-006	-5.94394e-005	0	
1.16057e-005	-5.95038e-005	0	
1.34719e-005	-5.95395e-005	0	
1.53819e-005	-5.95508e-005	0	
1.73356e-005	-5.9542e-005	0	
1.93316e-005	-5.952e-005	0	
2.13673e-005	-5.94885e-005	0	
2.34407e-005	-5.94539e-005	0	
2.55426e-005	-5.9423e-005	0	
2.76671e-005	-5.93972e-005	0	
2.98084e-005	-5.93803e-005	0	
3.19539e-005	-5.93744e-005	0	
3.40969e-005	-5.93724e-005	0	
-6.45197e-018	-1.03205e-017	0	
-1.12976e-006	-5.46221e-007	0	
-2.93507e-006	-1.09215e-006	0	
-4.75004e-006	-1.56499e-006	0	
-6.4595e-006	-1.9447e-006	0	
-8.02887e-006	-2.20673e-006	0	
-9.52627e-006	-2.44112e-006	0	
-1.10455e-005	-2.80399e-006	0	
-1.24886e-005	-3.15017e-006	0	
-1.38563e-005	-3.49128e-006	0	
-1.5154e-005	-3.83019e-006	0	
-1.63857e-005	-4.16702e-006	0	
-1.75556e-005	-4.50182e-006	0	
-1.86677e-005	-4.8346e-006	0	
-1.9726e-005	-5.16538e-006	0	
-2.07345e-005	-5.49417e-006	0	
-2.16972e-005	-5.821e-006	0	
-2.26179e-005	-6.14585e-006	0	
-2.35007e-005	-6.46871e-006	0	
-2.43494e-005	-6.78958e-006	0	
-2.51682e-005	-7.10851e-006	0	
-2.59608e-005	-7.42597e-006	0	
-2.67314e-005	-7.74321e-006	0	
-2.74843e-005	-8.05754e-006	0	
-2.82228e-005	-8.36992e-006	0	
-2.8955e-005	-8.68186e-006	0	
-2.96874e-005	-8.96408e-006	0	
-3.05023e-005	-9.20621e-006	0	
-3.14609e-005	-9.42285e-006	0	
-3.2571e-005	-9.63936e-006	0	
-3.37847e-005	-9.88336e-006	0	
-3.49918e-005	-1.01867e-005	0	
-3.604e-005	-1.05894e-005	0	
-3.6699e-005	-1.0901e-005	0	
-3.72889e-005	-1.11762e-005	0	
-3.78429e-005	-1.14767e-005	0	
-3.8376e-005	-1.17379e-005	0	
-3.88897e-005	-1.19529e-005	0	
-4.09789e-005	-1.46902e-005	0	
-4.24892e-005	-1.72292e-005	0	
-4.36962e-005	-1.94408e-005	0	
-4.47055e-005	-2.12912e-005	0	
-4.55359e-005	-2.28746e-005	0	
-4.61827e-005	-2.42322e-005	0	
-4.66394e-005	-2.53937e-005	0	
-4.68974e-005	-2.63807e-005	0	
-4.6937e-005	-2.72127e-005	0	
-4.66848e-005	-2.79255e-005	0	
-4.60448e-005	-2.86561e-005	0	
-4.57301e-005	-2.96312e-005	0	
-4.49911e-005	-2.99368e-005	0	
-4.36869e-005	-2.99487e-005	0	
-4.25606e-005	-3.01774e-005	0	
-4.18793e-005	-3.13901e-005	0	
-4.08477e-005	-3.24154e-005	0	
-3.976e-005	-3.33836e-005	0	
-3.83842e-005	-3.4384e-005	0	
-3.69852e-005	-3.54753e-005	0	
-3.56028e-005	-3.65979e-005	0	
-3.41983e-005	-3.77554e-005	0	
-3.27655e-005	-3.89511e-005	0	
-3.13073e-005	-4.01737e-005	0	
-2.98293e-005	-4.1414e-005	0	
-2.83392e-005	-4.26627e-005	0	
-2.68447e-005	-4.3911e-005	0	
-2.53505e-005	-4.51495e-005	0	
-2.38577e-005	-4.63707e-005	0	
-2.23693e-005	-4.75667e-005	0	
-2.08853e-005	-4.87304e-005	0	
-1.94045e-005	-4.98568e-005	0	
-1.79269e-005	-5.09408e-005	0	
-1.64524e-005	-5.19792e-005	0	
-1.49797e-005	-5.29698e-005	0	
-1.35095e-005	-5.39088e-005	0	
-1.20416e-005	-5.47934e-005	0	
-1.05737e-005	-5.56233e-005	0	
-9.10525e-006	-5.63963e-005	0	
-7.63465e-006	-5.71101e-005	0	
-6.15795e-006	-5.77652e-005	0	
-4.67207e-006	-5.83613e-005	0	
-3.17303e-006	-5.88974e-005	0	
-1.65555e-006	-5.93759e-005	0	
-1.15897e-007	-5.97984e-005	0	
1.45139e-006	-6.01641e-005	0	
3.05073e-006	-6.04782e-005	0	
4.68392e-006	-6.07445e-005	0	
6.3564e-006	-6.09638e-005	0	
8.07192e-006	-6.11403e-005	0	
9.83031e-006	-6.12782e-005	0	
1.16358e-005	-6.13821e-005	0	
1.34892e-005	-6.14572e-005	0	
1.53885e-005	-6.15068e-005	0	
1.73355e-005	-6.1535e-005	0	
1.93274e-005	-6.15477e-005	0	
2.13595e-005	-6.15489e-005	0	
2.34308e-005	-6.15427e-005	0	
2.55339e-005	-6.1533e-005	0	
2.76608e-005	-6.15237e-005	0	
2.98049e-005	-6.15172e-005	0	
3.19534e-005	-6.15136e-005	0	
3.40957e-005	-6.15131e-005	0	
-8.12539e-018	1.53589e-017	0	
-1.02573e-006	4.46926e-007	0	
-2.91742e-006	8.18283e-008	0	
-4.60524e-006	-3.31827e-007	0	
-6.38246e-006	-6.87192e-007	0	
-7.97675e-006	-1.00775e-006	0	
-9.46766e-006	-1.36993e-006	0	
-1.10421e-005	-1.71974e-006	0	
-1.22463e-005	-1.7352e-006	0	
-1.36246e-005	-1.8977e-006	0	
-1.4992e-005	-2.37445e-006	0	
-1.62325e-005	-2.89474e-006	0	
-1.74029e-005	-3.32276e-006	0	
-1.85169e-005	-3.72411e-006	0	
-1.9576e-005	-4.11184e-006	0	
-2.05846e-005	-4.49029e-006	0	
-2.15481e-005	-4.8607e-006	0	
-2.24711e-005	-5.22054e-006	0	
-2.33583e-005	-5.56274e-006	0	
-2.42167e-005	-5.86911e-006	0	
-2.50721e-005	-6.09597e-006	0	
-2.59156e-005	-6.29515e-006	0	
-2.65047e-005	-7.19199e-006	0	
-2.71789e-005	-7.81186e-006	0	
-2.85588e-005	-8.82618e-006	0	
-2.92818e-005	-9.37003e-006	0	
-2.94002e-005	-9.54094e-006	0	
-3.00835e-005	-9.79745e-006	0	
-3.10483e-005	-1.00918e-005	0	
-3.21643e-005	-1.03832e-005	0	
-3.33713e-005	-1.06789e-005	0	
-3.46291e-005	-1.0902e-005	0	
-3.61412e-005	-1.07183e-005	0	
-3.65995e-005	-1.07333e-005	0	
-3.71806e-005	-1.09351e-005	0	
-3.77574e-005	-1.12e-005	0	
-3.83022e-005	-1.14441e-005	0	
-3.86437e-005	-1.18712e-005	0	
-4.00087e-005	-1.51837e-005	0	
-4.15524e-005	-1.75753e-005	0	
-4.28891e-005	-1.96454e-005	0	
-4.40071e-005	-2.14662e-005	0	
-4.49235e-005	-2.30773e-005	0	
-4.56406e-005	-2.4514e-005	0	
-4.61558e-005	-2.58008e-005	0	
-4.646e-005	-2.69603e-005	0	
-4.65303e-005	-2.80195e-005	0	
-4.63303e-005	-2.89956e-005	0	
-4.59025e-005	-2.98591e-005	0	
-4.54794e-005	-3.06321e-005	0	
-4.48355e-005	-3.13247e-005	0	
-4.37943e-005	-3.20158e-005	0	
-4.29343e-005	-3.27242e-005	0	
-4.12939e-005	-3.27492e-005	0	
-4.00491e-005	-3.31306e-005	0	
-3.94154e-005	-3.45092e-005	0	
-3.79441e-005	-3.5593e-005	0	
-3.64751e-005	-3.6669e-005	0	
-3.51102e-005	-3.78183e-005	0	
-3.36755e-005	-3.90269e-005	0	
-3.2228e-005	-4.02903e-005	0	
-3.0759e-005	-4.15672e-005	0	
-2.9276e-005	-4.28589e-005	0	
-2.7787e-005	-4.41525e-005	0	
-2.62961e-005	-4.54401e-005	0	
-2.4809e-005	-4.6712e-005	0	
-2.33283e-005	-4.79612e-005	0	
-2.18535e-005	-4.918e-005	0	
-2.03853e-005	-5.03629e-005	0	
-1.89238e-005	-5.15051e-005	0	
-1.74667e-005	-5.26019e-005	0	
-1.60129e-005	-5.36508e-005	0	
-1.45628e-005	-5.46497e-005	0	
-1.31159e-005	-5.55954e-005	0	
-1.16707e-005	-5.64869e-005	0	
-1.02267e-005	-5.73237e-005	0	
-8.78358e-006	-5.81039e-005	0	
-7.33887e-006	-5.88258e-005	0	
-5.88773e-006	-5.94898e-005	0	
-4.42701e-006	-6.00968e-005	0	
-2.95319e-006	-6.06453e-005	0	
-1.46025e-006	-6.11371e-005	0	
5.61812e-008	-6.15759e-005	0	
1.59936e-006	-6.19621e-005	0	
3.17582e-006	-6.22978e-005	0	
4.7904e-006	-6.25868e-005	0	
6.44395e-006	-6.28316e-005	0	
8.13998e-006	-6.30349e-005	0	
9.88373e-006	-6.32e-005	0	
1.16767e-005	-6.33324e-005	0	
1.35172e-005	-6.34359e-005	0	
1.54059e-005	-6.35125e-005	0	
1.73451e-005	-6.3567e-005	0	
1.93313e-005	-6.36046e-005	0	
2.13591e-005	-6.36274e-005	0	
2.34269e-005	-6.36394e-005	0	
2.55295e-005	-6.36444e-005	0	
2.7658e-005	-6.36455e-005	0	
2.98042e-005	-6.36452e-005	0	
3.1956e-005	-6.36451e-005	0	
3.41017e-005	-6.36477e-005	0	
-2.49907e-017	3.86925e-017	0	
-1.32026e-006	1.19968e-006	0	
-3.04253e-006	1.00467e-006	0	
-4.51734e-006	9.69779e-007	0	
-6.37902e-006	4.47308e-007	0	
-7.86535e-006	2.68605e-008	0	
-9.45673e-006	-3.13411e-007	0	
-1.0971e-005	-6.44658e-007	0	
-1.2342e-005	-1.02314e-006	0	
-1.38825e-005	-1.40557e-006	0	
-1.50456e-005	-1.42469e-006	0	
-1.6415e-005	-1.58759e-006	0	
-1.75388e-005	-2.01418e-006	0	
-1.85571e-005	-2.39292e-006	0	
-1.95156e-005	-2.78242e-006	0	
-2.04078e-005	-3.21105e-006	0	
-2.13024e-005	-3.694e-006	0	
-2.21964e-005	-4.19403e-006	0	
-2.30708e-005	-4.70929e-006	0	
-2.39261e-005	-5.24742e-006	0	
-2.47327e-005	-5.84033e-006	0	
-2.5428e-005	-6.4987e-006	0	
-2.60168e-005	-7.23385e-006	0	
-2.65184e-005	-7.99937e-006	0	
-2.69127e-005	-9.08095e-006	0	
-2.88131e-005	-9.86348e-006	0	
-2.88937e-005	-1.01333e-005	0	
-2.95841e-005	-1.04011e-005	0	
-3.05525e-005	-1.07155e-005	0	
-3.16755e-005	-1.10817e-005	0	
-3.29107e-005	-1.14805e-005	0	
-3.42061e-005	-1.19108e-005	0	
-3.54752e-005	-1.2378e-005	0	
-3.63306e-005	-1.28906e-005	0	
-3.70623e-005	-1.34098e-005	0	
-3.7731e-005	-1.40146e-005	0	
-3.82751e-005	-1.48419e-005	0	
-3.86868e-005	-1.58849e-005	0	
-3.96116e-005	-1.72277e-005	0	
-4.09471e-005	-1.88144e-005	0	
-4.22635e-005	-2.05316e-005	0	
-4.34052e-005	-2.2183e-005	0	
-4.43538e-005	-2.37416e-005	0	
-4.51022e-005	-2.51993e-005	0	
-4.5645e-005	-2.65605e-005	0	
-4.59726e-005	-2.78331e-005	0	
-4.60709e-005	-2.90244e-005	0	
-4.59355e-005	-3.01283e-005	0	
-4.56145e-005	-3.11301e-005	0	
-4.51622e-005	-3.20607e-005	0	
-4.4532e-005	-3.29614e-005	0	
-4.36895e-005	-3.37839e-005	0	
-4.27686e-005	-3.45603e-005	0	
-4.14528e-005	-3.54297e-005	0	
-4.06705e-005	-3.6653e-005	0	
-3.9374e-005	-3.70211e-005	0	
-3.7441e-005	-3.70396e-005	0	
-3.57532e-005	-3.73157e-005	0	
-3.46179e-005	-3.8916e-005	0	
-3.30751e-005	-4.02425e-005	0	
-3.16606e-005	-4.15725e-005	0	
-3.01684e-005	-4.29264e-005	0	
-2.86815e-005	-4.43029e-005	0	
-2.71964e-005	-4.56587e-005	0	
-2.57133e-005	-4.70034e-005	0	
-2.4238e-005	-4.83275e-005	0	
-2.27725e-005	-4.96214e-005	0	
-2.1316e-005	-5.08777e-005	0	
-1.98677e-005	-5.20918e-005	0	
-1.84283e-005	-5.32591e-005	0	
-1.69946e-005	-5.43765e-005	0	
-1.55638e-005	-5.54428e-005	0	
-1.41369e-005	-5.64554e-005	0	
-1.27142e-005	-5.74133e-005	0	
-1.12936e-005	-5.83158e-005	0	
-9.87461e-006	-5.91608e-005	0	
-8.45721e-006	-5.99485e-005	0	
-7.03819e-006	-6.06791e-005	0	
-5.6129e-006	-6.13521e-005	0	
-4.17867e-006	-6.19683e-005	0	
-2.73053e-006	-6.25274e-005	0	
-1.26194e-006	-6.303e-005	0	
2.30531e-007	-6.34799e-005	0	
1.75034e-006	-6.38805e-005	0	
3.3048e-006	-6.42317e-005	0	
4.89862e-006	-6.45358e-005	0	
6.53341e-006	-6.4797e-005	0	
8.2128e-006	-6.50183e-005	0	
9.94096e-006	-6.5203e-005	0	
1.17195e-005	-6.53545e-005	0	
1.35478e-005	-6.54759e-005	0	
1.54269e-005	-6.55712e-005	0	
1.73568e-005	-6.56439e-005	0	
1.9335e-005	-6.56964e-005	0	
2.13582e-005	-6.57318e-005	0	
2.34236e-005	-6.57549e-005	0	
2.55247e-005	-6.57696e-005	0	
2.76545e-005	-6.57767e-005	0	
2.98046e-005	-6.57802e-005	0	
3.19628e-005	-6.57838e-005	0	
3.41174e-005	-6.57901e-005	0	
-8.64068e-018	5.56021e-018	0	
-1.61355e-006	3.91138e-007	0	
-3.26341e-006	9.46739e-007	0	
-4.8818e-006	1.42516e-006	0	
-6.49375e-006	1.19308e-006	0	
-7.78152e-006	1.16495e-006	0	
-9.46078e-006	6.97722e-007	0	
-1.08412e-005	2.95469e-007	0	
-1.23387e-005	-3.74609e-008	0	
-1.38058e-005	-3.63757e-007	0	
-1.51463e-005	-7.32991e-007	0	
-1.66514e-005	-1.08326e-006	0	
-1.7659e-005	-1.06158e-006	0	
-1.85655e-005	-1.1274e-006	0	
-1.94741e-005	-1.63718e-006	0	
-2.02109e-005	-2.10758e-006	0	
-2.09844e-005	-2.6025e-006	0	
-2.18315e-005	-3.18758e-006	0	
-2.2654e-005	-3.84683e-006	0	
-2.34685e-005	-4.58274e-006	0	
-2.42308e-005	-5.39765e-006	0	
-2.4889e-005	-6.31189e-006	0	
-2.53928e-005	-7.32634e-006	0	
-2.56794e-005	-8.57507e-006	0	
-2.4677e-005	-1.10138e-005	0	
-2.79599e-005	-1.01869e-005	0	
-2.82548e-005	-1.0525e-005	0	
-2.90076e-005	-1.08101e-005	0	
-2.99701e-005	-1.11644e-005	0	
-3.10704e-005	-1.1642e-005	0	
-3.22892e-005	-1.22239e-005	0	
-3.35785e-005	-1.29029e-005	0	
-3.48037e-005	-1.36774e-005	0	
-3.58601e-005	-1.44879e-005	0	
-3.67491e-005	-1.52924e-005	0	
-3.75186e-005	-1.61353e-005	0	
-3.81628e-005	-1.70577e-005	0	
-3.8765e-005	-1.8045e-005	0	
-3.95878e-005	-1.91113e-005	0	
-4.07017e-005	-2.03698e-005	0	
-4.18693e-005	-2.17847e-005	0	
-4.2942e-005	-2.32634e-005	0	
-4.3861e-005	-2.47453e-005	0	
-4.45988e-005	-2.61951e-005	0	
-4.51411e-005	-2.75966e-005	0	
-4.54771e-005	-2.89415e-005	0	
-4.55997e-005	-3.0223e-005	0	
-4.55134e-005	-3.14323e-005	0	
-4.52412e-005	-3.25659e-005	0	
-4.48047e-005	-3.36387e-005	0	
-4.41914e-005	-3.46647e-005	0	
-4.34068e-005	-3.56413e-005	0	
-4.24569e-005	-3.65873e-005	0	
-4.13724e-005	-3.74745e-005	0	
-4.03945e-005	-3.83054e-005	0	
-3.9199e-005	-3.9065e-005	0	
-3.75683e-005	-3.98255e-005	0	
-3.61903e-005	-4.06212e-005	0	
-3.39923e-005	-4.06541e-005	0	
-3.21741e-005	-4.10204e-005	0	
-3.10781e-005	-4.28337e-005	0	
-2.94827e-005	-4.43125e-005	0	
-2.80524e-005	-4.5756e-005	0	
-2.65554e-005	-4.71911e-005	0	
-2.50799e-005	-4.86237e-005	0	
-2.3623e-005	-5.00099e-005	0	
-2.21792e-005	-5.13606e-005	0	
-2.07482e-005	-5.26674e-005	0	
-1.93253e-005	-5.39243e-005	0	
-1.79116e-005	-5.51265e-005	0	
-1.6505e-005	-5.62722e-005	0	
-1.51013e-005	-5.7361e-005	0	
-1.37003e-005	-5.83909e-005	0	
-1.23028e-005	-5.93632e-005	0	
-1.09078e-005	-6.02782e-005	0	
-9.51509e-006	-6.11337e-005	0	
-8.12566e-006	-6.19303e-005	0	
-6.73407e-006	-6.26691e-005	0	
-5.33525e-006	-6.3349e-005	0	
-3.92814e-006	-6.39708e-005	0	
-2.50735e-006	-6.45362e-005	0	
-1.06492e-006	-6.50468e-005	0	
4.028e-007	-6.55042e-005	0	
1.89964e-006	-6.59119e-005	0	
3.43168e-006	-6.62723e-005	0	
5.00383e-006	-6.65866e-005	0	
6.61994e-006	-6.68573e-005	0	
8.28274e-006	-6.70888e-005	0	
9.99484e-006	-6.72854e-005	0	
1.17581e-005	-6.74481e-005	0	
1.3574e-005	-6.75797e-005	0	
1.54427e-005	-6.76861e-005	0	
1.73633e-005	-6.77682e-005	0	
1.93338e-005	-6.78283e-005	0	
2.13522e-005	-6.78708e-005	0	
2.34147e-005	-6.79e-005	0	
2.55153e-005	-6.7919e-005	0	
2.76472e-005	-6.79282e-005	0	
2.98036e-005	-6.79331e-005	0	
3.19734e-005	-6.7938e-005	0	
3.41437e-005	-6.79466e-005	0	
-1.36298e-017	2.79429e-018	0	
-1.86048e-006	1.64974e-007	0	
-3.52202e-006	4.1475e-007	0	
-5.09438e-006	7.33602e-007	0	
-6.7175e-006	1.22368e-006	0	
-8.10212e-006	1.57787e-006	0	
-9.56671e-006	1.37307e-006	0	
-1.07625e-005	1.34982e-006	0	
-1.23435e-005	9.22743e-007	0	
-1.36743e-005	5.25426e-007	0	
-1.51352e-005	1.80468e-007	0	
-1.66213e-005	-1.66982e-007	0	
-1.76829e-005	-5.45795e-007	0	
-1.87498e-005	-1.00571e-006	0	
-1.9505e-005	-1.10869e-006	0	
-1.99764e-005	-1.11231e-006	0	
-2.05413e-005	-1.27744e-006	0	
-2.14107e-005	-2.13227e-006	0	
-2.21226e-005	-2.90262e-006	0	
-2.28942e-005	-3.75709e-006	0	
-2.35901e-005	-4.74559e-006	0	
-2.42136e-005	-5.87213e-006	0	
-2.46061e-005	-7.15808e-006	0	
-2.469e-005	-8.56462e-006	0	
-2.40708e-005	-1.05402e-005	0	
-2.64227e-005	-1.03524e-005	0	
-2.75083e-005	-1.05105e-005	0	
-2.83515e-005	-1.08261e-005	0	
-2.92734e-005	-1.12996e-005	0	
-3.03148e-005	-1.19342e-005	0	
-3.14852e-005	-1.27216e-005	0	
-3.27521e-005	-1.36336e-005	0	
-3.40349e-005	-1.46278e-005	0	
-3.5236e-005	-1.56447e-005	0	
-3.63095e-005	-1.66468e-005	0	
-3.72386e-005	-1.76397e-005	0	
-3.8041e-005	-1.86372e-005	0	
-3.87984e-005	-1.96454e-005	0	
-3.96433e-005	-2.06957e-005	0	
-4.06129e-005	-2.18558e-005	0	
-4.16282e-005	-2.31453e-005	0	
-4.25943e-005	-2.45315e-005	0	
-4.34441e-005	-2.59669e-005	0	
-4.41401e-005	-2.74139e-005	0	
-4.46603e-005	-2.88468e-005	0	
-4.4991e-005	-3.02478e-005	0	
-4.51256e-005	-3.16035e-005	0	
-4.50666e-005	-3.29037e-005	0	
-4.48241e-005	-3.41448e-005	0	
-4.44074e-005	-3.5331e-005	0	
-4.38193e-005	-3.64673e-005	0	
-4.30642e-005	-3.75541e-005	0	
-4.21595e-005	-3.85858e-005	0	
-4.11553e-005	-3.95498e-005	0	
-4.00912e-005	-4.04782e-005	0	
-3.88865e-005	-4.14079e-005	0	
-3.74784e-005	-4.22628e-005	0	
-3.60217e-005	-4.30596e-005	0	
-3.41772e-005	-4.39159e-005	0	
-3.27364e-005	-4.48765e-005	0	
-3.03518e-005	-4.49189e-005	0	
-2.84446e-005	-4.53541e-005	0	
-2.74072e-005	-4.72508e-005	0	
-2.58131e-005	-4.88081e-005	0	
-2.44125e-005	-5.03034e-005	0	
-2.29602e-005	-5.17629e-005	0	
-2.15346e-005	-5.31988e-005	0	
-2.01369e-005	-5.45641e-005	0	
-1.8749e-005	-5.58716e-005	0	
-1.73695e-005	-5.71172e-005	0	
-1.59947e-005	-5.82977e-005	0	
-1.4622e-005	-5.94125e-005	0	
-1.32508e-005	-6.04626e-005	0	
-1.18808e-005	-6.14503e-005	0	
-1.05126e-005	-6.23769e-005	0	
-9.14862e-006	-6.32433e-005	0	
-7.78814e-006	-6.40494e-005	0	
-6.42606e-006	-6.47941e-005	0	
-5.0577e-006	-6.54781e-005	0	
-3.67962e-006	-6.61025e-005	0	
-2.28616e-006	-6.66698e-005	0	
-8.71556e-007	-6.71832e-005	0	
5.6998e-007	-6.76435e-005	0	
2.04291e-006	-6.80529e-005	0	
3.55191e-006	-6.84159e-005	0	
5.10235e-006	-6.87346e-005	0	
6.69899e-006	-6.90097e-005	0	
8.3439e-006	-6.9245e-005	0	
1.00393e-005	-6.94453e-005	0	
1.1788e-005	-6.96122e-005	0	
1.35909e-005	-6.9749e-005	0	
1.54488e-005	-6.98588e-005	0	
1.73602e-005	-6.99432e-005	0	
1.93228e-005	-7.00062e-005	0	
2.1336e-005	-7.00519e-005	0	
2.33969e-005	-7.00819e-005	0	
2.54982e-005	-7.00996e-005	0	
2.76336e-005	-7.01085e-005	0	
2.97988e-005	-7.01119e-005	0	
3.19841e-005	-7.0115e-005	0	
3.4176e-005	-7.01238e-005	0	
-1.3339e-017	-5.55095e-019	0	
-1.96992e-006	1.56601e-009	0	
-3.76661e-006	6.71111e-008	0	
-5.44995e-006	2.02368e-007	0	
-7.02791e-006	3.8932e-007	0	
-8.44457e-006	6.39973e-007	0	
-9.85996e-006	1.03935e-006	0	
-1.10672e-005	1.74945e-006	0	
-1.24462e-005	1.56881e-006	0	
-1.36018e-005	1.53394e-006	0	
-1.50189e-005	1.28629e-006	0	
-1.66103e-005	5.00471e-007	0	
-1.75899e-005	-1.68749e-008	0	
-1.86638e-005	-3.98266e-007	0	
-1.9438e-005	-7.35013e-007	0	
-2.00676e-005	-1.12817e-006	0	
-2.06847e-005	-1.39282e-006	0	
-2.09726e-005	-1.40585e-006	0	
-2.14479e-005	-1.55932e-006	0	
-2.22914e-005	-2.6845e-006	0	
-2.28285e-005	-3.77889e-006	0	
-2.34494e-005	-5.04672e-006	0	
-2.38167e-005	-6.48235e-006	0	
-2.38051e-005	-7.98698e-006	0	
-2.40043e-005	-9.1672e-006	0	
-2.54815e-005	-9.38354e-006	0	
-2.66943e-005	-9.84965e-006	0	
-2.75665e-005	-1.03853e-005	0	
-2.84236e-005	-1.10424e-005	0	
-2.93824e-005	-1.18698e-005	0	
-3.04952e-005	-1.28677e-005	0	
-3.1766e-005	-1.40015e-005	0	
-3.31411e-005	-1.52049e-005	0	
-3.45209e-005	-1.6405e-005	0	
-3.58017e-005	-1.75613e-005	0	
-3.69247e-005	-1.86758e-005	0	
-3.78942e-005	-1.97686e-005	0	
-3.87726e-005	-2.08622e-005	0	
-3.96406e-005	-2.19895e-005	0	
-4.05386e-005	-2.31916e-005	0	
-4.14443e-005	-2.44892e-005	0	
-4.23062e-005	-2.58728e-005	0	
-4.30752e-005	-2.73153e-005	0	
-4.37149e-005	-2.8787e-005	0	
-4.42004e-005	-3.02621e-005	0	
-4.45154e-005	-3.17204e-005	0	
-4.46511e-005	-3.31461e-005	0	
-4.46055e-005	-3.45283e-005	0	