# vtk DataFile Version 4.1
vtk output
ASCII
DATASET UNSTRUCTURED_GRID

POINTS	30401	float
0	0	0	
0	1	0	
0	2	0	
0	3	0	
0	4	0	
0	5	0	
0	6	0	
0	7	0	
0	8	0	
0	9	0	
0	10	0	
0	11	0	
0	12	0	
0	13	0	
0	14	0	
0	15	0	
0	16	0	
0	17	0	
0	18	0	
0	19	0	
0	20	0	
0	21	0	
0	22	0	
0	23	0	
0	24	0	
0	25	0	
0	26	0	
0	27	0	
0	28	0	
0	29	0	
0	30	0	
0	31	0	
0	32	0	
0	33	0	
0	34	0	
0	35	0	
0	36	0	
0	37	0	
0	38	0	
0	39	0	
0	40	0	
0	41	0	
0	42	0	
0	43	0	
0	44	0	
0	45	0	
0	46	0	
0	47	0	
0	48	0	
0	49	0	
0	50	0	
0	51	0	
0	52	0	
0	53	0	
0	54	0	
0	55	0	
0	56	0	
0	57	0	
0	58	0	
0	59	0	
0	60	0	
0	61	0	
0	62	0	
0	63	0	
0	64	0	
0	65	0	
0	66	0	
0	67	0	
0	68	0	
0	69	0	
0	70	0	
0	71	0	
0	72	0	
0	73	0	
0	74	0	
0	75	0	
0	76	0	
0	77	0	
0	78	0	
0	79	0	
0	80	0	
0	81	0	
0	82	0	
0	83	0	
0	84	0	
0	85	0	
0	86	0	
0	87	0	
0	88	0	
0	89	0	
0	90	0	
0	91	0	
0	92	0	
0	93	0	
0	94	0	
0	95	0	
0	96	0	
0	97	0	
0	98	0	
0	99	0	
0	100	0	
1	0	0	
1	1	0	
1	2	0	
1	3	0	
1	4	0	
1	5	0	
1	6	0	
1	7	0	
1	8	0	
1	9	0	
1	10	0	
1	11	0	
1	12	0	
1	13	0	
1	14	0	
1	15	0	
1	16	0	
1	17	0	
1	18	0	
1	19	0	
1	20	0	
1	21	0	
1	22	0	
1	23	0	
1	24	0	
1	25	0	
1	26	0	
1	27	0	
1	28	0	
1	29	0	
1	30	0	
1	31	0	
1	32	0	
1	33	0	
1	34	0	
1	35	0	
1	36	0	
1	37	0	
1	38	0	
1	39	0	
1	40	0	
1	41	0	
1	42	0	
1	43	0	
1	44	0	
1	45	0	
1	46	0	
1	47	0	
1	48	0	
1	49	0	
1	50	0	
1	51	0	
1	52	0	
1	53	0	
1	54	0	
1	55	0	
1	56	0	
1	57	0	
1	58	0	
1	59	0	
1	60	0	
1	61	0	
1	62	0	
1	63	0	
1	64	0	
1	65	0	
1	66	0	
1	67	0	
1	68	0	
1	69	0	
1	70	0	
1	71	0	
1	72	0	
1	73	0	
1	74	0	
1	75	0	
1	76	0	
1	77	0	
1	78	0	
1	79	0	
1	80	0	
1	81	0	
1	82	0	
1	83	0	
1	84	0	
1	85	0	
1	86	0	
1	87	0	
1	88	0	
1	89	0	
1	90	0	
1	91	0	
1	92	0	
1	93	0	
1	94	0	
1	95	0	
1	96	0	
1	97	0	
1	98	0	
1	99	0	
1	100	0	
2	0	0	
2	1	0	
2	2	0	
2	3	0	
2	4	0	
2	5	0	
2	6	0	
2	7	0	
2	8	0	
2	9	0	
2	10	0	
2	11	0	
2	12	0	
2	13	0	
2	14	0	
2	15	0	
2	16	0	
2	17	0	
2	18	0	
2	19	0	
2	20	0	
2	21	0	
2	22	0	
2	23	0	
2	24	0	
2	25	0	
2	26	0	
2	27	0	
2	28	0	
2	29	0	
2	30	0	
2	31	0	
2	32	0	
2	33	0	
2	34	0	
2	35	0	
2	36	0	
2	37	0	
2	38	0	
2	39	0	
2	40	0	
2	41	0	
2	42	0	
2	43	0	
2	44	0	
2	45	0	
2	46	0	
2	47	0	
2	48	0	
2	49	0	
2	50	0	
2	51	0	
2	52	0	
2	53	0	
2	54	0	
2	55	0	
2	56	0	
2	57	0	
2	58	0	
2	59	0	
2	60	0	
2	61	0	
2	62	0	
2	63	0	
2	64	0	
2	65	0	
2	66	0	
2	67	0	
2	68	0	
2	69	0	
2	70	0	
2	71	0	
2	72	0	
2	73	0	
2	74	0	
2	75	0	
2	76	0	
2	77	0	
2	78	0	
2	79	0	
2	80	0	
2	81	0	
2	82	0	
2	83	0	
2	84	0	
2	85	0	
2	86	0	
2	87	0	
2	88	0	
2	89	0	
2	90	0	
2	91	0	
2	92	0	
2	93	0	
2	94	0	
2	95	0	
2	96	0	
2	97	0	
2	98	0	
2	99	0	
2	100	0	
3	0	0	
3	1	0	
3	2	0	
3	3	0	
3	4	0	
3	5	0	
3	6	0	
3	7	0	
3	8	0	
3	9	0	
3	10	0	
3	11	0	
3	12	0	
3	13	0	
3	14	0	
3	15	0	
3	16	0	
3	17	0	
3	18	0	
3	19	0	
3	20	0	
3	21	0	
3	22	0	
3	23	0	
3	24	0	
3	25	0	
3	26	0	
3	27	0	
3	28	0	
3	29	0	
3	30	0	
3	31	0	
3	32	0	
3	33	0	
3	34	0	
3	35	0	
3	36	0	
3	37	0	
3	38	0	
3	39	0	
3	40	0	
3	41	0	
3	42	0	
3	43	0	
3	44	0	
3	45	0	
3	46	0	
3	47	0	
3	48	0	
3	49	0	
3	50	0	
3	51	0	
3	52	0	
3	53	0	
3	54	0	
3	55	0	
3	56	0	
3	57	0	
3	58	0	
3	59	0	
3	60	0	
3	61	0	
3	62	0	
3	63	0	
3	64	0	
3	65	0	
3	66	0	
3	67	0	
3	68	0	
3	69	0	
3	70	0	
3	71	0	
3	72	0	
3	73	0	
3	74	0	
3	75	0	
3	76	0	
3	77	0	
3	78	0	
3	79	0	
3	80	0	
3	81	0	
3	82	0	
3	83	0	
3	84	0	
3	85	0	
3	86	0	
3	87	0	
3	88	0	
3	89	0	
3	90	0	
3	91	0	
3	92	0	
3	93	0	
3	94	0	
3	95	0	
3	96	0	
3	97	0	
3	98	0	
3	99	0	
3	100	0	
4	0	0	
4	1	0	
4	2	0	
4	3	0	
4	4	0	
4	5	0	
4	6	0	
4	7	0	
4	8	0	
4	9	0	
4	10	0	
4	11	0	
4	12	0	
4	13	0	
4	14	0	
4	15	0	
4	16	0	
4	17	0	
4	18	0	
4	19	0	
4	20	0	
4	21	0	
4	22	0	
4	23	0	
4	24	0	
4	25	0	
4	26	0	
4	27	0	
4	28	0	
4	29	0	
4	30	0	
4	31	0	
4	32	0	
4	33	0	
4	34	0	
4	35	0	
4	36	0	
4	37	0	
4	38	0	
4	39	0	
4	40	0	
4	41	0	
4	42	0	
4	43	0	
4	44	0	
4	45	0	
4	46	0	
4	47	0	
4	48	0	
4	49	0	
4	50	0	
4	51	0	
4	52	0	
4	53	0	
4	54	0	
4	55	0	
4	56	0	
4	57	0	
4	58	0	
4	59	0	
4	60	0	
4	61	0	
4	62	0	
4	63	0	
4	64	0	
4	65	0	
4	66	0	
4	67	0	
4	68	0	
4	69	0	
4	70	0	
4	71	0	
4	72	0	
4	73	0	
4	74	0	
4	75	0	
4	76	0	
4	77	0	
4	78	0	
4	79	0	
4	80	0	
4	81	0	
4	82	0	
4	83	0	
4	84	0	
4	85	0	
4	86	0	
4	87	0	
4	88	0	
4	89	0	
4	90	0	
4	91	0	
4	92	0	
4	93	0	
4	94	0	
4	95	0	
4	96	0	
4	97	0	
4	98	0	
4	99	0	
4	100	0	
5	0	0	
5	1	0	
5	2	0	
5	3	0	
5	4	0	
5	5	0	
5	6	0	
5	7	0	
5	8	0	
5	9	0	
5	10	0	
5	11	0	
5	12	0	
5	13	0	
5	14	0	
5	15	0	
5	16	0	
5	17	0	
5	18	0	
5	19	0	
5	20	0	
5	21	0	
5	22	0	
5	23	0	
5	24	0	
5	25	0	
5	26	0	
5	27	0	
5	28	0	
5	29	0	
5	30	0	
5	31	0	
5	32	0	
5	33	0	
5	34	0	
5	35	0	
5	36	0	
5	37	0	
5	38	0	
5	39	0	
5	40	0	
5	41	0	
5	42	0	
5	43	0	
5	44	0	
5	45	0	
5	46	0	
5	47	0	
5	48	0	
5	49	0	
5	50	0	
5	51	0	
5	52	0	
5	53	0	
5	54	0	
5	55	0	
5	56	0	
5	57	0	
5	58	0	
5	59	0	
5	60	0	
5	61	0	
5	62	0	
5	63	0	
5	64	0	
5	65	0	
5	66	0	
5	67	0	
5	68	0	
5	69	0	
5	70	0	
5	71	0	
5	72	0	
5	73	0	
5	74	0	
5	75	0	
5	76	0	
5	77	0	
5	78	0	
5	79	0	
5	80	0	
5	81	0	
5	82	0	
5	83	0	
5	84	0	
5	85	0	
5	86	0	
5	87	0	
5	88	0	
5	89	0	
5	90	0	
5	91	0	
5	92	0	
5	93	0	
5	94	0	
5	95	0	
5	96	0	
5	97	0	
5	98	0	
5	99	0	
5	100	0	
6	0	0	
6	1	0	
6	2	0	
6	3	0	
6	4	0	
6	5	0	
6	6	0	
6	7	0	
6	8	0	
6	9	0	
6	10	0	
6	11	0	
6	12	0	
6	13	0	
6	14	0	
6	15	0	
6	16	0	
6	17	0	
6	18	0	
6	19	0	
6	20	0	
6	21	0	
6	22	0	
6	23	0	
6	24	0	
6	25	0	
6	26	0	
6	27	0	
6	28	0	
6	29	0	
6	30	0	
6	31	0	
6	32	0	
6	33	0	
6	34	0	
6	35	0	
6	36	0	
6	37	0	
6	38	0	
6	39	0	
6	40	0	
6	41	0	
6	42	0	
6	43	0	
6	44	0	
6	45	0	
6	46	0	
6	47	0	
6	48	0	
6	49	0	
6	50	0	
6	51	0	
6	52	0	
6	53	0	
6	54	0	
6	55	0	
6	56	0	
6	57	0	
6	58	0	
6	59	0	
6	60	0	
6	61	0	
6	62	0	
6	63	0	
6	64	0	
6	65	0	
6	66	0	
6	67	0	
6	68	0	
6	69	0	
6	70	0	
6	71	0	
6	72	0	
6	73	0	
6	74	0	
6	75	0	
6	76	0	
6	77	0	
6	78	0	
6	79	0	
6	80	0	
6	81	0	
6	82	0	
6	83	0	
6	84	0	
6	85	0	
6	86	0	
6	87	0	
6	88	0	
6	89	0	
6	90	0	
6	91	0	
6	92	0	
6	93	0	
6	94	0	
6	95	0	
6	96	0	
6	97	0	
6	98	0	
6	99	0	
6	100	0	
7	0	0	
7	1	0	
7	2	0	
7	3	0	
7	4	0	
7	5	0	
7	6	0	
7	7	0	
7	8	0	
7	9	0	
7	10	0	
7	11	0	
7	12	0	
7	13	0	
7	14	0	
7	15	0	
7	16	0	
7	17	0	
7	18	0	
7	19	0	
7	20	0	
7	21	0	
7	22	0	
7	23	0	
7	24	0	
7	25	0	
7	26	0	
7	27	0	
7	28	0	
7	29	0	
7	30	0	
7	31	0	
7	32	0	
7	33	0	
7	34	0	
7	35	0	
7	36	0	
7	37	0	
7	38	0	
7	39	0	
7	40	0	
7	41	0	
7	42	0	
7	43	0	
7	44	0	
7	45	0	
7	46	0	
7	47	0	
7	48	0	
7	49	0	
7	50	0	
7	51	0	
7	52	0	
7	53	0	
7	54	0	
7	55	0	
7	56	0	
7	57	0	
7	58	0	
7	59	0	
7	60	0	
7	61	0	
7	62	0	
7	63	0	
7	64	0	
7	65	0	
7	66	0	
7	67	0	
7	68	0	
7	69	0	
7	70	0	
7	71	0	
7	72	0	
7	73	0	
7	74	0	
7	75	0	
7	76	0	
7	77	0	
7	78	0	
7	79	0	
7	80	0	
7	81	0	
7	82	0	
7	83	0	
7	84	0	
7	85	0	
7	86	0	
7	87	0	
7	88	0	
7	89	0	
7	90	0	
7	91	0	
7	92	0	
7	93	0	
7	94	0	
7	95	0	
7	96	0	
7	97	0	
7	98	0	
7	99	0	
7	100	0	
8	0	0	
8	1	0	
8	2	0	
8	3	0	
8	4	0	
8	5	0	
8	6	0	
8	7	0	
8	8	0	
8	9	0	
8	10	0	
8	11	0	
8	12	0	
8	13	0	
8	14	0	
8	15	0	
8	16	0	
8	17	0	
8	18	0	
8	19	0	
8	20	0	
8	21	0	
8	22	0	
8	23	0	
8	24	0	
8	25	0	
8	26	0	
8	27	0	
8	28	0	
8	29	0	
8	30	0	
8	31	0	
8	32	0	
8	33	0	
8	34	0	
8	35	0	
8	36	0	
8	37	0	
8	38	0	
8	39	0	
8	40	0	
8	41	0	
8	42	0	
8	43	0	
8	44	0	
8	45	0	
8	46	0	
8	47	0	
8	48	0	
8	49	0	
8	50	0	
8	51	0	
8	52	0	
8	53	0	
8	54	0	
8	55	0	
8	56	0	
8	57	0	
8	58	0	
8	59	0	
8	60	0	
8	61	0	
8	62	0	
8	63	0	
8	64	0	
8	65	0	
8	66	0	
8	67	0	
8	68	0	
8	69	0	
8	70	0	
8	71	0	
8	72	0	
8	73	0	
8	74	0	
8	75	0	
8	76	0	
8	77	0	
8	78	0	
8	79	0	
8	80	0	
8	81	0	
8	82	0	
8	83	0	
8	84	0	
8	85	0	
8	86	0	
8	87	0	
8	88	0	
8	89	0	
8	90	0	
8	91	0	
8	92	0	
8	93	0	
8	94	0	
8	95	0	
8	96	0	
8	97	0	
8	98	0	
8	99	0	
8	100	0	
9	0	0	
9	1	0	
9	2	0	
9	3	0	
9	4	0	
9	5	0	
9	6	0	
9	7	0	
9	8	0	
9	9	0	
9	10	0	
9	11	0	
9	12	0	
9	13	0	
9	14	0	
9	15	0	
9	16	0	
9	17	0	
9	18	0	
9	19	0	
9	20	0	
9	21	0	
9	22	0	
9	23	0	
9	24	0	
9	25	0	
9	26	0	
9	27	0	
9	28	0	
9	29	0	
9	30	0	
9	31	0	
9	32	0	
9	33	0	
9	34	0	
9	35	0	
9	36	0	
9	37	0	
9	38	0	
9	39	0	
9	40	0	
9	41	0	
9	42	0	
9	43	0	
9	44	0	
9	45	0	
9	46	0	
9	47	0	
9	48	0	
9	49	0	
9	50	0	
9	51	0	
9	52	0	
9	53	0	
9	54	0	
9	55	0	
9	56	0	
9	57	0	
9	58	0	
9	59	0	
9	60	0	
9	61	0	
9	62	0	
9	63	0	
9	64	0	
9	65	0	
9	66	0	
9	67	0	
9	68	0	
9	69	0	
9	70	0	
9	71	0	
9	72	0	
9	73	0	
9	74	0	
9	75	0	
9	76	0	
9	77	0	
9	78	0	
9	79	0	
9	80	0	
9	81	0	
9	82	0	
9	83	0	
9	84	0	
9	85	0	
9	86	0	
9	87	0	
9	88	0	
9	89	0	
9	90	0	
9	91	0	
9	92	0	
9	93	0	
9	94	0	
9	95	0	
9	96	0	
9	97	0	
9	98	0	
9	99	0	
9	100	0	
10	0	0	
10	1	0	
10	2	0	
10	3	0	
10	4	0	
10	5	0	
10	6	0	
10	7	0	
10	8	0	
10	9	0	
10	10	0	
10	11	0	
10	12	0	
10	13	0	
10	14	0	
10	15	0	
10	16	0	
10	17	0	
10	18	0	
10	19	0	
10	20	0	
10	21	0	
10	22	0	
10	23	0	
10	24	0	
10	25	0	
10	26	0	
10	27	0	
10	28	0	
10	29	0	
10	30	0	
10	31	0	
10	32	0	
10	33	0	
10	34	0	
10	35	0	
10	36	0	
10	37	0	
10	38	0	
10	39	0	
10	40	0	
10	41	0	
10	42	0	
10	43	0	
10	44	0	
10	45	0	
10	46	0	
10	47	0	
10	48	0	
10	49	0	
10	50	0	
10	51	0	
10	52	0	
10	53	0	
10	54	0	
10	55	0	
10	56	0	
10	57	0	
10	58	0	
10	59	0	
10	60	0	
10	61	0	
10	62	0	
10	63	0	
10	64	0	
10	65	0	
10	66	0	
10	67	0	
10	68	0	
10	69	0	
10	70	0	
10	71	0	
10	72	0	
10	73	0	
10	74	0	
10	75	0	
10	76	0	
10	77	0	
10	78	0	
10	79	0	
10	80	0	
10	81	0	
10	82	0	
10	83	0	
10	84	0	
10	85	0	
10	86	0	
10	87	0	
10	88	0	
10	89	0	
10	90	0	
10	91	0	
10	92	0	
10	93	0	
10	94	0	
10	95	0	
10	96	0	
10	97	0	
10	98	0	
10	99	0	
10	100	0	
11	0	0	
11	1	0	
11	2	0	
11	3	0	
11	4	0	
11	5	0	
11	6	0	
11	7	0	
11	8	0	
11	9	0	
11	10	0	
11	11	0	
11	12	0	
11	13	0	
11	14	0	
11	15	0	
11	16	0	
11	17	0	
11	18	0	
11	19	0	
11	20	0	
11	21	0	
11	22	0	
11	23	0	
11	24	0	
11	25	0	
11	26	0	
11	27	0	
11	28	0	
11	29	0	
11	30	0	
11	31	0	
11	32	0	
11	33	0	
11	34	0	
11	35	0	
11	36	0	
11	37	0	
11	38	0	
11	39	0	
11	40	0	
11	41	0	
11	42	0	
11	43	0	
11	44	0	
11	45	0	
11	46	0	
11	47	0	
11	48	0	
11	49	0	
11	50	0	
11	51	0	
11	52	0	
11	53	0	
11	54	0	
11	55	0	
11	56	0	
11	57	0	
11	58	0	
11	59	0	
11	60	0	
11	61	0	
11	62	0	
11	63	0	
11	64	0	
11	65	0	
11	66	0	
11	67	0	
11	68	0	
11	69	0	
11	70	0	
11	71	0	
11	72	0	
11	73	0	
11	74	0	
11	75	0	
11	76	0	
11	77	0	
11	78	0	
11	79	0	
11	80	0	
11	81	0	
11	82	0	
11	83	0	
11	84	0	
11	85	0	
11	86	0	
11	87	0	
11	88	0	
11	89	0	
11	90	0	
11	91	0	
11	92	0	
11	93	0	
11	94	0	
11	95	0	
11	96	0	
11	97	0	
11	98	0	
11	99	0	
11	100	0	
12	0	0	
12	1	0	
12	2	0	
12	3	0	
12	4	0	
12	5	0	
12	6	0	
12	7	0	
12	8	0	
12	9	0	
12	10	0	
12	11	0	
12	12	0	
12	13	0	
[...]
POINT_DATA	30401
VECTORS d float
-8.76127e-018	-1.58117e-017	0	
-4.7409e-007	-4.81783e-007	0	
-8.23528e-007	-7.60005e-007	0	
-1.13209e-006	-9.71392e-007	0	
-1.4089e-006	-1.13943e-006	0	
-1.65993e-006	-1.26859e-006	0	
-1.88178e-006	-1.35911e-006	0	
-2.06101e-006	-1.4044e-006	0	
-2.1779e-006	-1.41687e-006	0	
-2.32397e-006	-1.46008e-006	0	
-2.46675e-006	-1.5071e-006	0	
-2.574e-006	-1.54539e-006	0	
-2.83328e-006	-1.74193e-006	0	
-2.99048e-006	-1.88633e-006	0	
-3.07705e-006	-2.02014e-006	0	
-3.21663e-006	-2.16495e-006	0	
-3.34149e-006	-2.30217e-006	0	
-3.46266e-006	-2.44792e-006	0	
-3.58405e-006	-2.58787e-006	0	
-3.70079e-006	-2.72466e-006	0	
-3.80296e-006	-2.85516e-006	0	
-3.89325e-006	-2.98669e-006	0	
-3.97434e-006	-3.12212e-006	0	
-4.04949e-006	-3.25704e-006	0	
-4.1217e-006	-3.3935e-006	0	
-4.18816e-006	-3.52803e-006	0	
-4.25041e-006	-3.66029e-006	0	
-4.30829e-006	-3.79236e-006	0	
-4.35979e-006	-3.92093e-006	0	
-4.4063e-006	-4.04835e-006	0	
-4.44636e-006	-4.17434e-006	0	
-4.4792e-006	-4.29775e-006	0	
-4.50733e-006	-4.42072e-006	0	
-4.52976e-006	-4.54237e-006	0	
-4.54556e-006	-4.66355e-006	0	
-4.55757e-006	-4.78358e-006	0	
-4.56545e-006	-4.90323e-006	0	
-4.56786e-006	-5.02095e-006	0	
-4.56781e-006	-5.13703e-006	0	
-4.5629e-006	-5.25262e-006	0	
-4.55341e-006	-5.36462e-006	0	
-4.54173e-006	-5.47706e-006	0	
-4.52452e-006	-5.58691e-006	0	
-4.50432e-006	-5.69365e-006	0	
-4.48075e-006	-5.80136e-006	0	
-4.45253e-006	-5.9041e-006	0	
-4.42276e-006	-6.00591e-006	0	
-4.38861e-006	-6.1066e-006	0	
-4.35082e-006	-6.20257e-006	0	
-4.31089e-006	-6.29927e-006	0	
-4.26716e-006	-6.3921e-006	0	
-4.2205e-006	-6.48145e-006	0	
-4.17057e-006	-6.57092e-006	0	
-4.11765e-006	-6.65515e-006	0	
-4.06246e-006	-6.73727e-006	0	
-4.00274e-006	-6.81779e-006	0	
-3.94021e-006	-6.89357e-006	0	
-3.87501e-006	-6.96814e-006	0	
-3.80631e-006	-7.03971e-006	0	
-3.73521e-006	-7.10743e-006	0	
-3.66006e-006	-7.17335e-006	0	
-3.58133e-006	-7.23561e-006	0	
-3.50057e-006	-7.29432e-006	0	
-3.41551e-006	-7.35038e-006	0	
-3.32641e-006	-7.40278e-006	0	
-3.23532e-006	-7.45156e-006	0	
-3.13958e-006	-7.49734e-006	0	
-3.0402e-006	-7.54023e-006	0	
-2.9377e-006	-7.5796e-006	0	
-2.83059e-006	-7.61601e-006	0	
-2.72036e-006	-7.64944e-006	0	
-2.60618e-006	-7.67889e-006	0	
-2.48698e-006	-7.70533e-006	0	
-2.36393e-006	-7.72873e-006	0	
-2.23679e-006	-7.7486e-006	0	
-2.10467e-006	-7.76651e-006	0	
-1.969e-006	-7.78146e-006	0	
-1.8282e-006	-7.79282e-006	0	
-1.68237e-006	-7.80186e-006	0	
-1.53306e-006	-7.80783e-006	0	
-1.37816e-006	-7.8117e-006	0	
-1.21814e-006	-7.81419e-006	0	
-1.0545e-006	-7.81433e-006	0	
-8.84717e-007	-7.81279e-006	0	
-7.1017e-007	-7.80941e-006	0	
-5.32254e-007	-7.8041e-006	0	
-3.49105e-007	-7.79836e-006	0	
-1.61114e-007	-7.79208e-006	0	
3.11091e-008	-7.78528e-006	0	
2.27596e-007	-7.77836e-006	0	
4.27251e-007	-7.77104e-006	0	
6.30595e-007	-7.76431e-006	0	
8.37282e-007	-7.75865e-006	0	
1.04574e-006	-7.75366e-006	0	
1.25676e-006	-7.74941e-006	0	
1.46985e-006	-7.74565e-006	0	
1.68328e-006	-7.74321e-006	0	
1.89702e-006	-7.74227e-006	0	
2.11041e-006	-7.74217e-006	0	
2.32371e-006	-7.7428e-006	0	
2.53737e-006	-7.74277e-006	0	
-2.66566e-018	-5.2358e-018	0	
-3.64065e-007	-2.6207e-007	0	
-7.22654e-007	-5.12227e-007	0	
-1.04874e-006	-7.35049e-007	0	
-1.34117e-006	-9.19861e-007	0	
-1.60577e-006	-1.07453e-006	0	
-1.84074e-006	-1.20305e-006	0	
-2.0349e-006	-1.31414e-006	0	
-2.1914e-006	-1.43757e-006	0	
-2.39468e-006	-1.58624e-006	0	
-2.54557e-006	-1.64695e-006	0	
-2.61947e-006	-1.6562e-006	0	
-2.75705e-006	-1.71707e-006	0	
-2.9368e-006	-1.82586e-006	0	
-2.98008e-006	-1.84347e-006	0	
-3.16097e-006	-2.02642e-006	0	
-3.27482e-006	-2.17909e-006	0	
-3.40194e-006	-2.32736e-006	0	
-3.52227e-006	-2.47346e-006	0	
-3.64127e-006	-2.61904e-006	0	
-3.74565e-006	-2.75901e-006	0	
-3.83407e-006	-2.90071e-006	0	
-3.91478e-006	-3.04293e-006	0	
-3.99035e-006	-3.18408e-006	0	
-4.0625e-006	-3.32542e-006	0	
-4.13001e-006	-3.46487e-006	0	
-4.19289e-006	-3.60249e-006	0	
-4.25138e-006	-3.73919e-006	0	
-4.30365e-006	-3.87387e-006	0	
-4.35045e-006	-4.00735e-006	0	
-4.39152e-006	-4.13905e-006	0	
-4.42545e-006	-4.26838e-006	0	
-4.45395e-006	-4.39695e-006	0	
-4.47659e-006	-4.52451e-006	0	
-4.49301e-006	-4.65049e-006	0	
-4.50551e-006	-4.77557e-006	0	
-4.51371e-006	-4.89923e-006	0	
-4.51705e-006	-5.02117e-006	0	
-4.51723e-006	-5.14201e-006	0	
-4.51316e-006	-5.26089e-006	0	
-4.50471e-006	-5.37783e-006	0	
-4.49323e-006	-5.49351e-006	0	
-4.47735e-006	-5.60687e-006	0	
-4.45765e-006	-5.71854e-006	0	
-4.43483e-006	-5.82832e-006	0	
-4.40808e-006	-5.93523e-006	0	
-4.37843e-006	-6.04069e-006	0	
-4.34557e-006	-6.1443e-006	0	
-4.30896e-006	-6.24486e-006	0	
-4.26968e-006	-6.34342e-006	0	
-4.22737e-006	-6.43965e-006	0	
-4.18169e-006	-6.533e-006	0	
-4.13298e-006	-6.62412e-006	0	
-4.08124e-006	-6.71251e-006	0	
-4.02648e-006	-6.79811e-006	0	
-3.96858e-006	-6.88156e-006	0	
-3.90757e-006	-6.96187e-006	0	
-3.84335e-006	-7.03882e-006	0	
-3.77599e-006	-7.1133e-006	0	
-3.7058e-006	-7.18487e-006	0	
-3.63206e-006	-7.25324e-006	0	
-3.55488e-006	-7.31846e-006	0	
-3.47511e-006	-7.38058e-006	0	
-3.3914e-006	-7.43993e-006	0	
-3.30407e-006	-7.49621e-006	0	
-3.21407e-006	-7.54888e-006	0	
-3.11962e-006	-7.59836e-006	0	
-3.02176e-006	-7.64485e-006	0	
-2.92068e-006	-7.68829e-006	0	
-2.81491e-006	-7.72842e-006	0	
-2.70593e-006	-7.76504e-006	0	
-2.59299e-006	-7.79909e-006	0	
-2.47516e-006	-7.83022e-006	0	
-2.35369e-006	-7.85746e-006	0	
-2.22793e-006	-7.88167e-006	0	
-2.09708e-006	-7.90354e-006	0	
-1.9626e-006	-7.92283e-006	0	
-1.82295e-006	-7.93915e-006	0	
-1.67837e-006	-7.95219e-006	0	
-1.53004e-006	-7.9627e-006	0	
-1.37607e-006	-7.97154e-006	0	
-1.217e-006	-7.97833e-006	0	
-1.05381e-006	-7.9829e-006	0	
-8.85053e-007	-7.98569e-006	0	
-7.11558e-007	-7.98653e-006	0	
-5.33562e-007	-7.98603e-006	0	
-3.50146e-007	-7.98479e-006	0	
-1.6281e-007	-7.98277e-006	0	
2.89042e-008	-7.97998e-006	0	
2.2534e-007	-7.97647e-006	0	
4.24958e-007	-7.97243e-006	0	
6.28281e-007	-7.96851e-006	0	
8.35233e-007	-7.9651e-006	0	
1.04432e-006	-7.96225e-006	0	
1.25572e-006	-7.95972e-006	0	
1.4689e-006	-7.95727e-006	0	
1.68281e-006	-7.95543e-006	0	
1.89692e-006	-7.95473e-006	0	
2.1108e-006	-7.95487e-006	0	
2.32418e-006	-7.95544e-006	0	
2.53629e-006	-7.95559e-006	0	
-1.75765e-018	-4.02242e-018	0	
-3.10739e-007	-1.89158e-007	0	
-6.49684e-007	-3.93127e-007	0	
-9.73297e-007	-5.93774e-007	0	
-1.27063e-006	-7.79371e-007	0	
-1.54058e-006	-9.48883e-007	0	
-1.78012e-006	-1.10468e-006	0	
-1.98518e-006	-1.24872e-006	0	
-2.16735e-006	-1.37964e-006	0	
-2.35686e-006	-1.50321e-006	0	
-2.52083e-006	-1.62156e-006	0	
-2.6574e-006	-1.75127e-006	0	
-2.83948e-006	-1.89003e-006	0	
-2.95396e-006	-1.93982e-006	0	
-3.00815e-006	-1.95067e-006	0	
-3.10536e-006	-1.99952e-006	0	
-3.16839e-006	-2.02607e-006	0	
-3.3476e-006	-2.20573e-006	0	
-3.45284e-006	-2.35914e-006	0	
-3.58344e-006	-2.5181e-006	0	
-3.6864e-006	-2.66422e-006	0	
-3.77029e-006	-2.81504e-006	0	
-3.85141e-006	-2.96546e-006	0	
-3.92821e-006	-3.1129e-006	0	
-4.00074e-006	-3.25967e-006	0	
-4.06887e-006	-3.40459e-006	0	
-4.13275e-006	-3.54839e-006	0	
-4.19174e-006	-3.69078e-006	0	
-4.24482e-006	-3.83111e-006	0	
-4.29247e-006	-3.97013e-006	0	
-4.33448e-006	-4.10729e-006	0	
-4.36928e-006	-4.24233e-006	0	
-4.39778e-006	-4.37642e-006	0	
-4.4207e-006	-4.50915e-006	0	
-4.43819e-006	-4.6402e-006	0	
-4.45118e-006	-4.77053e-006	0	
-4.45973e-006	-4.89893e-006	0	
-4.46406e-006	-5.02558e-006	0	
-4.4647e-006	-5.15105e-006	0	
-4.46133e-006	-5.2739e-006	0	
-4.45413e-006	-5.39518e-006	0	
-4.44312e-006	-5.51457e-006	0	
-4.4279e-006	-5.63147e-006	0	
-4.40935e-006	-5.74703e-006	0	
-4.38751e-006	-5.86043e-006	0	
-4.36169e-006	-5.97146e-006	0	
-4.33261e-006	-6.08074e-006	0	
-4.30075e-006	-6.18766e-006	0	
-4.26574e-006	-6.29182e-006	0	
-4.22741e-006	-6.39356e-006	0	
-4.1858e-006	-6.49326e-006	0	
-4.14144e-006	-6.59025e-006	0	
-4.09413e-006	-6.68439e-006	0	
-4.04315e-006	-6.77624e-006	0	
-3.98922e-006	-6.86537e-006	0	
-3.93268e-006	-6.9518e-006	0	
-3.87313e-006	-7.03549e-006	0	
-3.81032e-006	-7.11606e-006	0	
-3.7442e-006	-7.19401e-006	0	
-3.67496e-006	-7.26878e-006	0	
-3.60279e-006	-7.34048e-006	0	
-3.52726e-006	-7.40915e-006	0	
-3.44826e-006	-7.47452e-006	0	
-3.36569e-006	-7.53715e-006	0	
-3.27994e-006	-7.59683e-006	0	
-3.19111e-006	-7.65324e-006	0	
-3.09818e-006	-7.70677e-006	0	
-3.0018e-006	-7.75702e-006	0	
-2.90205e-006	-7.80389e-006	0	
-2.79805e-006	-7.84797e-006	0	
-2.69009e-006	-7.88873e-006	0	
-2.57783e-006	-7.92641e-006	0	
-2.4616e-006	-7.96113e-006	0	
-2.34184e-006	-7.99263e-006	0	
-2.21742e-006	-8.02123e-006	0	
-2.08777e-006	-8.047e-006	0	
-1.9543e-006	-8.07006e-006	0	
-1.81618e-006	-8.09054e-006	0	
-1.67282e-006	-8.10821e-006	0	
-1.52489e-006	-8.12334e-006	0	
-1.37209e-006	-8.1362e-006	0	
-1.21429e-006	-8.14639e-006	0	
-1.05149e-006	-8.15474e-006	0	
-8.83565e-007	-8.16181e-006	0	
-7.10944e-007	-8.16685e-006	0	
-5.33201e-007	-8.17023e-006	0	
-3.50234e-007	-8.17297e-006	0	
-1.63417e-007	-8.17422e-006	0	
2.79758e-008	-8.17421e-006	0	
2.24148e-007	-8.1738e-006	0	
4.23588e-007	-8.17307e-006	0	
6.26881e-007	-8.17168e-006	0	
8.33949e-007	-8.16992e-006	0	
1.0436e-006	-8.1684e-006	0	
1.25516e-006	-8.16734e-006	0	
1.46823e-006	-8.16661e-006	0	
1.6826e-006	-8.1661e-006	0	
1.89718e-006	-8.16566e-006	0	
2.11139e-006	-8.16559e-006	0	
2.32473e-006	-8.16569e-006	0	
2.53653e-006	-8.16601e-006	0	
-1.74419e-018	-3.60585e-018	0	
-2.92564e-007	-1.63755e-007	0	
-6.0503e-007	-3.37532e-007	0	
-9.1382e-007	-5.17276e-007	0	
-1.20571e-006	-6.95811e-007	0	
-1.47414e-006	-8.68431e-007	0	
-1.71564e-006	-1.03314e-006	0	
-1.93006e-006	-1.18765e-006	0	
-2.12569e-006	-1.32987e-006	0	
-2.3112e-006	-1.46445e-006	0	
-2.48108e-006	-1.59508e-006	0	
-2.63725e-006	-1.71705e-006	0	
-2.80334e-006	-1.83648e-006	0	
-2.93521e-006	-1.94558e-006	0	
-3.04843e-006	-2.05776e-006	0	
-3.1667e-006	-2.14154e-006	0	
-3.19876e-006	-2.15186e-006	0	
-3.28892e-006	-2.21097e-006	0	
-3.33293e-006	-2.23877e-006	0	
-3.51927e-006	-2.41001e-006	0	
-3.63643e-006	-2.58347e-006	0	
-3.69886e-006	-2.73638e-006	0	
-3.78724e-006	-2.89172e-006	0	
-3.86289e-006	-3.04382e-006	0	
-3.93553e-006	-3.19681e-006	0	
-4.00494e-006	-3.34724e-006	0	
-4.06965e-006	-3.49742e-006	0	
-4.12943e-006	-3.64578e-006	0	
-4.18372e-006	-3.79215e-006	0	
-4.2326e-006	-3.93695e-006	0	
-4.27538e-006	-4.07946e-006	0	
-4.31081e-006	-4.22013e-006	0	
-4.33948e-006	-4.35965e-006	0	
-4.36273e-006	-4.4973e-006	0	
-4.38091e-006	-4.63366e-006	0	
-4.39422e-006	-4.76928e-006	0	
-4.40329e-006	-4.90262e-006	0	
-4.40875e-006	-5.03422e-006	0	
-4.41024e-006	-5.16406e-006	0	
-4.40766e-006	-5.29125e-006	0	
-4.40155e-006	-5.41692e-006	0	
-4.39126e-006	-5.54032e-006	0	
-4.37686e-006	-5.66129e-006	0	
-4.3592e-006	-5.78086e-006	0	
-4.33832e-006	-5.89808e-006	0	
-4.31348e-006	-6.01323e-006	0	
-4.28532e-006	-6.12621e-006	0	
-4.25457e-006	-6.23633e-006	0	
-4.22066e-006	-6.34427e-006	0	
-4.18323e-006	-6.44987e-006	0	
-4.14268e-006	-6.55292e-006	0	
-4.09942e-006	-6.65352e-006	0	
-4.0533e-006	-6.75141e-006	0	
-4.00364e-006	-6.84662e-006	0	
-3.95097e-006	-6.93887e-006	0	
-3.89551e-006	-7.0282e-006	0	
-3.83694e-006	-7.11498e-006	0	
-3.77538e-006	-7.1993e-006	0	
-3.71079e-006	-7.28096e-006	0	
-3.64281e-006	-7.35903e-006	0	
-3.5717e-006	-7.43437e-006	0	
-3.49753e-006	-7.50709e-006	0	
-3.41989e-006	-7.57625e-006	0	
-3.33875e-006	-7.64234e-006	0	
-3.25421e-006	-7.70538e-006	0	
-3.16663e-006	-7.7653e-006	0	
-3.0754e-006	-7.82234e-006	0	
-2.98047e-006	-7.87596e-006	0	
-2.88181e-006	-7.92638e-006	0	
-2.77926e-006	-7.97446e-006	0	
-2.67261e-006	-8.01946e-006	0	
-2.5617e-006	-8.0606e-006	0	
-2.44691e-006	-8.09872e-006	0	
-2.3283e-006	-8.13422e-006	0	
-2.20508e-006	-8.16687e-006	0	
-2.07673e-006	-8.19674e-006	0	
-1.94442e-006	-8.22361e-006	0	
-1.80769e-006	-8.24776e-006	0	
-1.66529e-006	-8.26927e-006	0	
-1.51811e-006	-8.28829e-006	0	
-1.36653e-006	-8.30483e-006	0	
-1.21e-006	-8.31903e-006	0	
-1.04798e-006	-8.33128e-006	0	
-8.80747e-007	-8.34193e-006	0	
-7.08758e-007	-8.35046e-006	0	
-5.31809e-007	-8.35725e-006	0	
-3.49832e-007	-8.36254e-006	0	
-1.63313e-007	-8.36633e-006	0	
2.79705e-008	-8.36918e-006	0	
2.2389e-007	-8.37153e-006	0	
4.23353e-007	-8.37298e-006	0	
6.26629e-007	-8.37378e-006	0	
8.33355e-007	-8.37417e-006	0	
1.04305e-006	-8.37428e-006	0	
1.25492e-006	-8.37421e-006	0	
1.46841e-006	-8.37448e-006	0	
1.68311e-006	-8.37492e-006	0	
1.89804e-006	-8.37521e-006	0	
2.1126e-006	-8.37579e-006	0	
2.32607e-006	-8.37679e-006	0	
2.53826e-006	-8.3778e-006	0	
-1.74805e-018	-3.36302e-018	0	
-2.82229e-007	-1.52151e-007	0	
-5.758e-007	-3.11666e-007	0	
-8.68591e-007	-4.7868e-007	0	
-1.15004e-006	-6.49459e-007	0	
-1.41334e-006	-8.19732e-007	0	
-1.655e-006	-9.85906e-007	0	
-1.87501e-006	-1.14494e-006	0	
-2.07708e-006	-1.2953e-006	0	
-2.26513e-006	-1.43829e-006	0	
-2.43954e-006	-1.57486e-006	0	
-2.60391e-006	-1.70374e-006	0	
-2.76202e-006	-1.82828e-006	0	
-2.90396e-006	-1.94874e-006	0	
-3.03111e-006	-2.06082e-006	0	
-3.14695e-006	-2.17424e-006	0	
-3.24083e-006	-2.29535e-006	0	
-3.35945e-006	-2.39971e-006	0	
-3.37281e-006	-2.40997e-006	0	
-3.4564e-006	-2.47496e-006	0	
-3.58397e-006	-2.588e-006	0	
-3.58477e-006	-2.61506e-006	0	
-3.72789e-006	-2.81472e-006	0	
-3.79121e-006	-2.97818e-006	0	
-3.86985e-006	-3.13715e-006	0	
-3.93834e-006	-3.29231e-006	0	
-4.00319e-006	-3.4492e-006	0	
-4.06441e-006	-3.60345e-006	0	
-4.12012e-006	-3.7563e-006	0	
-4.17022e-006	-3.90758e-006	0	
-4.21412e-006	-4.05598e-006	0	
-4.2507e-006	-4.2019e-006	0	
-4.27979e-006	-4.34653e-006	0	
-4.30292e-006	-4.48959e-006	0	
-4.32099e-006	-4.63163e-006	0	
-4.33467e-006	-4.77238e-006	0	
-4.34476e-006	-4.91061e-006	0	
-4.35142e-006	-5.04692e-006	0	
-4.35386e-006	-5.18127e-006	0	
-4.35217e-006	-5.31297e-006	0	
-4.3469e-006	-5.44275e-006	0	
-4.3377e-006	-5.5704e-006	0	
-4.32445e-006	-5.69577e-006	0	
-4.30733e-006	-5.81948e-006	0	
-4.28707e-006	-5.94059e-006	0	
-4.26344e-006	-6.05951e-006	0	
-4.23639e-006	-6.17652e-006	0	
-4.20644e-006	-6.29051e-006	0	
-4.17346e-006	-6.40218e-006	0	
-4.13712e-006	-6.51185e-006	0	
-4.09787e-006	-6.61834e-006	0	
-4.05582e-006	-6.72202e-006	0	
-4.0105e-006	-6.82371e-006	0	
-3.96208e-006	-6.92271e-006	0	
-3.91117e-006	-7.01857e-006	0	
-3.85705e-006	-7.11176e-006	0	
-3.79936e-006	-7.20227e-006	0	
-3.73886e-006	-7.29013e-006	0	
-3.6756e-006	-7.37492e-006	0	
-3.60893e-006	-7.45625e-006	0	
-3.53889e-006	-7.53502e-006	0	
-3.46581e-006	-7.61094e-006	0	
-3.38967e-006	-7.68365e-006	0	
-3.31033e-006	-7.75362e-006	0	
-3.22728e-006	-7.82033e-006	0	
-3.14077e-006	-7.88402e-006	0	
-3.05096e-006	-7.94469e-006	0	
-2.9575e-006	-8.00193e-006	0	
-2.85988e-006	-8.05613e-006	0	
-2.7584e-006	-8.10764e-006	0	
-2.65345e-006	-8.15607e-006	0	
-2.54438e-006	-8.2012e-006	0	
-2.43073e-006	-8.24354e-006	0	
-2.31293e-006	-8.28295e-006	0	
-2.19123e-006	-8.31912e-006	0	
-2.0648e-006	-8.3526e-006	0	
-1.93359e-006	-8.3832e-006	0	
-1.79753e-006	-8.41083e-006	0	
-1.65631e-006	-8.43593e-006	0	
-1.51063e-006	-8.4582e-006	0	
-1.36023e-006	-8.47809e-006	0	
-1.2044e-006	-8.49624e-006	0	
-1.0431e-006	-8.51223e-006	0	
-8.77162e-007	-8.52545e-006	0	
-7.0621e-007	-8.53675e-006	0	
-5.29733e-007	-8.54646e-006	0	
-3.48136e-007	-8.55451e-006	0	
-1.62228e-007	-8.56125e-006	0	
2.85497e-008	-8.56709e-006	0	
2.24298e-007	-8.57146e-006	0	
4.23719e-007	-8.57431e-006	0	
6.26604e-007	-8.57661e-006	0	
8.33176e-007	-8.57872e-006	0	
1.04279e-006	-8.58016e-006	0	
1.25507e-006	-8.58109e-006	0	
1.46942e-006	-8.58193e-006	0	
1.68438e-006	-8.58289e-006	0	
1.89961e-006	-8.58397e-006	0	
2.11515e-006	-8.5851e-006	0	
2.32933e-006	-8.58674e-006	0	
2.5407e-006	-8.58852e-006	0	
-1.73759e-018	-3.26476e-018	0	
-2.74828e-007	-1.47531e-007	0	
-5.54354e-007	-3.01129e-007	0	
-8.32713e-007	-4.61692e-007	0	
-1.10303e-006	-6.27244e-007	0	
-1.35975e-006	-7.94511e-007	0	
-1.59954e-006	-9.60111e-007	0	
-1.82159e-006	-1.12122e-006	0	
-2.02727e-006	-1.27623e-006	0	
-2.2185e-006	-1.42492e-006	0	
-2.39685e-006	-1.56749e-006	0	
-2.56428e-006	-1.70427e-006	0	
-2.72153e-006	-1.83688e-006	0	
-2.86611e-006	-1.96605e-006	0	
-2.99772e-006	-2.09087e-006	0	
-3.11686e-006	-2.21196e-006	0	
-3.22738e-006	-2.32806e-006	0	
-3.33592e-006	-2.44989e-006	0	
-3.4154e-006	-2.58618e-006	0	
-3.55326e-006	-2.73756e-006	0	
-3.61444e-006	-2.78883e-006	0	
-3.61882e-006	-2.8031e-006	0	
-3.66837e-006	-2.85754e-006	0	
-3.68022e-006	-2.88654e-006	0	
-3.80871e-006	-3.07072e-006	0	
-3.8651e-006	-3.23899e-006	0	
-3.93563e-006	-3.4037e-006	0	
-3.99585e-006	-3.56411e-006	0	
-4.05248e-006	-3.7251e-006	0	
-4.10483e-006	-3.88269e-006	0	
-4.15148e-006	-4.03697e-006	0	
-4.18936e-006	-4.18784e-006	0	
-4.21769e-006	-4.33727e-006	0	
-4.23978e-006	-4.48622e-006	0	
-4.25776e-006	-4.63437e-006	0	
-4.27226e-006	-4.78034e-006	0	
-4.28373e-006	-4.92362e-006	0	
-4.29168e-006	-5.06482e-006	0	
-4.29515e-006	-5.20383e-006	0	
-4.29493e-006	-5.33995e-006	0	
-4.2906e-006	-5.47381e-006	0	
-4.28205e-006	-5.60562e-006	0	
-4.26969e-006	-5.73514e-006	0	
-4.25335e-006	-5.8629e-006	0	
-4.23382e-006	-5.98831e-006	0	
-4.21131e-006	-6.11126e-006	0	
-4.18519e-006	-6.23232e-006	0	
-4.156e-006	-6.3506e-006	0	
-4.12429e-006	-6.46613e-006	0	
-4.08926e-006	-6.57948e-006	0	
-4.05112e-006	-6.68975e-006	0	
-4.01043e-006	-6.79718e-006	0	
-3.96612e-006	-6.90238e-006	0	
-3.9187e-006	-7.00476e-006	0	
-3.86913e-006	-7.1046e-006	0	
-3.81626e-006	-7.20185e-006	0	
-3.75959e-006	-7.29592e-006	0	
-3.70051e-006	-7.38722e-006	0	
-3.63867e-006	-7.47537e-006	0	
-3.57316e-006	-7.5606e-006	0	
-3.50467e-006	-7.64307e-006	0	
-3.43315e-006	-7.722e-006	0	
-3.35811e-006	-7.79812e-006	0	
-3.2801e-006	-7.87177e-006	0	
-3.19869e-006	-7.94214e-006	0	
-3.11334e-006	-8.0095e-006	0	
-3.02471e-006	-8.07406e-006	0	
-2.93273e-006	-8.13523e-006	0	
-2.83667e-006	-8.19318e-006	0	
-2.73641e-006	-8.2478e-006	0	
-2.63292e-006	-8.29948e-006	0	
-2.52533e-006	-8.34864e-006	0	
-2.41305e-006	-8.39495e-006	0	
-2.29655e-006	-8.43799e-006	0	
-2.17623e-006	-8.47761e-006	0	
-2.05112e-006	-8.51426e-006	0	
-1.92111e-006	-8.54825e-006	0	
-1.78648e-006	-8.57958e-006	0	
-1.64674e-006	-8.60825e-006	0	
-1.50213e-006	-8.63397e-006	0	
-1.35251e-006	-8.657e-006	0	
-1.19764e-006	-8.67807e-006	0	
-1.03743e-006	-8.69668e-006	0	
-8.72664e-007	-8.71276e-006	0	
-7.02656e-007	-8.72676e-006	0	
-5.26943e-007	-8.73914e-006	0	
-3.46321e-007	-8.74986e-006	0	
-1.61123e-007	-8.75893e-006	0	
2.94291e-008	-8.76647e-006	0	
2.24461e-007	-8.77278e-006	0	
4.23229e-007	-8.77757e-006	0	
6.26489e-007	-8.78108e-006	0	
8.33718e-007	-8.78397e-006	0	
1.04299e-006	-8.78646e-006	0	
1.25511e-006	-8.78848e-006	0	
1.46994e-006	-8.79014e-006	0	
1.68559e-006	-8.79181e-006	0	
1.90178e-006	-8.79343e-006	0	
2.11816e-006	-8.79472e-006	0	
2.33328e-006	-8.79624e-006	0	
2.54562e-006	-8.79859e-006	0	
-1.71579e-018	-3.24427e-018	0	
-2.67827e-007	-1.46893e-007	0	
-5.3588e-007	-2.99532e-007	0	
-8.02074e-007	-4.58271e-007	0	
-1.06227e-006	-6.21645e-007	0	
-1.31225e-006	-7.87181e-007	0	
-1.54897e-006	-9.52204e-007	0	
-1.77097e-006	-1.11442e-006	0	
-1.97832e-006	-1.27233e-006	0	
-2.17185e-006	-1.42528e-006	0	
-2.35267e-006	-1.57323e-006	0	
-2.52185e-006	-1.71659e-006	0	
-2.67971e-006	-1.85617e-006	0	
-2.82562e-006	-1.99245e-006	0	
-2.95945e-006	-2.12526e-006	0	
-3.08227e-006	-2.25443e-006	0	
-3.19646e-006	-2.38046e-006	0	
-3.30216e-006	-2.50529e-006	0	
-3.40233e-006	-2.62607e-006	0	
-3.51786e-006	-2.74725e-006	0	
-3.59772e-006	-2.86185e-006	0	
-3.66662e-006	-2.9819e-006	0	
-3.73269e-006	-3.06314e-006	0	
-3.71424e-006	-3.07372e-006	0	
-3.74686e-006	-3.12783e-006	0	
-3.74635e-006	-3.15933e-006	0	
-3.87141e-006	-3.3522e-006	0	
-3.92031e-006	-3.52762e-006	0	
-3.98317e-006	-3.69806e-006	0	
-4.03589e-006	-3.86248e-006	0	
-4.08756e-006	-4.02424e-006	0	
-4.12788e-006	-4.17874e-006	0	
-4.15306e-006	-4.33331e-006	0	
-4.17369e-006	-4.48883e-006	0	
-4.19194e-006	-4.64257e-006	0	
-4.20754e-006	-4.79353e-006	0	
-4.22025e-006	-4.94208e-006	0	
-4.22936e-006	-5.08806e-006	0	
-4.23441e-006	-5.23144e-006	0	
-4.23589e-006	-5.37221e-006	0	
-4.23276e-006	-5.51024e-006	0	
-4.22465e-006	-5.64627e-006	0	
-4.21288e-006	-5.78021e-006	0	
-4.19751e-006	-5.91188e-006	0	
-4.17864e-006	-6.04165e-006	0	