# vtk DataFile Version 4.1
vtk output
ASCII
DATASET UNSTRUCTURED_GRID

POINTS	30401	float
0	0	0	
0	1	0	
0	2	0	
0	3	0	
0	4	0	
0	5	0	
0	6	0	
0	7	0	
0	8	0	
0	9	0	
0	10	0	
0	11	0	
0	12	0	
0	13	0	
0	14	0	
0	15	0	
0	16	0	
0	17	0	
0	18	0	
0	19	0	
0	20	0	
0	21	0	
0	22	0	
0	23	0	
0	24	0	
0	25	0	
0	26	0	
0	27	0	
0	28	0	
0	29	0	
0	30	0	
0	31	0	
0	32	0	
0	33	0	
0	34	0	
0	35	0	
0	36	0	
0	37	0	
0	38	0	
0	39	0	
0	40	0	
0	41	0	
0	42	0	
0	43	0	
0	44	0	
0	45	0	
0	46	0	
0	47	0	
0	48	0	
0	49	0	
0	50	0	
0	51	0	
0	52	0	
0	53	0	
0	54	0	
0	55	0	
0	56	0	
0	57	0	
0	58	0	
0	59	0	
0	60	0	
0	61	0	
0	62	0	
0	63	0	
0	64	0	
0	65	0	
0	66	0	
0	67	0	
0	68	0	
0	69	0	
0	70	0	
0	71	0	
0	72	0	
0	73	0	
0	74	0	
0	75	0	
0	76	0	
0	77	0	
0	78	0	
0	79	0	
0	80	0	
0	81	0	
0	82	0	
0	83	0	
0	84	0	
0	85	0	
0	86	0	
0	87	0	
0	88	0	
0	89	0	
0	90	0	
0	91	0	
0	92	0	
0	93	0	
0	94	0	
0	95	0	
0	96	0	
0	97	0	
0	98	0	
0	99	0	
0	100	0	
1	0	0	
1	1	0	
1	2	0	
1	3	0	
1	4	0	
1	5	0	
1	6	0	
1	7	0	
1	8	0	
1	9	0	
1	10	0	
1	11	0	
1	12	0	
1	13	0	
1	14	0	
1	15	0	
1	16	0	
1	17	0	
1	18	0	
1	19	0	
1	20	0	
1	21	0	
1	22	0	
1	23	0	
1	24	0	
1	25	0	
1	26	0	
1	27	0	
1	28	0	
1	29	0	
1	30	0	
1	31	0	
1	32	0	
1	33	0	
1	34	0	
1	35	0	
1	36	0	
1	37	0	
1	38	0	
1	39	0	
1	40	0	
1	41	0	
1	42	0	
1	43	0	
1	44	0	
1	45	0	
1	46	0	
1	47	0	
1	48	0	
1	49	0	
1	50	0	
1	51	0	
1	52	0	
1	53	0	
1	54	0	
1	55	0	
1	56	0	
1	57	0	
1	58	0	
1	59	0	
1	60	0	
1	61	0	
1	62	0	
1	63	0	
1	64	0	
1	65	0	
1	66	0	
1	67	0	
1	68	0	
1	69	0	
1	70	0	
1	71	0	
1	72	0	
1	73	0	
1	74	0	
1	75	0	
1	76	0	
1	77	0	
1	78	0	
1	79	0	
1	80	0	
1	81	0	
1	82	0	
1	83	0	
1	84	0	
1	85	0	
1	86	0	
1	87	0	
1	88	0	
1	89	0	
1	90	0	
1	91	0	
1	92	0	
1	93	0	
1	94	0	
1	95	0	
1	96	0	
1	97	0	
1	98	0	
1	99	0	
1	100	0	
2	0	0	
2	1	0	
2	2	0	
2	3	0	
2	4	0	
2	5	0	
2	6	0	
2	7	0	
2	8	0	
2	9	0	
2	10	0	
2	11	0	
2	12	0	
2	13	0	
2	14	0	
2	15	0	
2	16	0	
2	17	0	
2	18	0	
2	19	0	
2	20	0	
2	21	0	
2	22	0	
2	23	0	
2	24	0	
2	25	0	
2	26	0	
2	27	0	
2	28	0	
2	29	0	
2	30	0	
2	31	0	
2	32	0	
2	33	0	
2	34	0	
2	35	0	
2	36	0	
2	37	0	
2	38	0	
2	39	0	
2	40	0	
2	41	0	
2	42	0	
2	43	0	
2	44	0	
2	45	0	
2	46	0	
2	47	0	
2	48	0	
2	49	0	
2	50	0	
2	51	0	
2	52	0	
2	53	0	
2	54	0	
2	55	0	
2	56	0	
2	57	0	
2	58	0	
2	59	0	
2	60	0	
2	61	0	
2	62	0	
2	63	0	
2	64	0	
2	65	0	
2	66	0	
2	67	0	
2	68	0	
2	69	0	
2	70	0	
2	71	0	
2	72	0	
2	73	0	
2	74	0	
2	75	0	
2	76	0	
2	77	0	
2	78	0	
2	79	0	
2	80	0	
2	81	0	
2	82	0	
2	83	0	
2	84	0	
2	85	0	
2	86	0	
2	87	0	
2	88	0	
2	89	0	
2	90	0	
2	91	0	
2	92	0	
2	93	0	
2	94	0	
2	95	0	
2	96	0	
2	97	0	
2	98	0	
2	99	0	
2	100	0	
3	0	0	
3	1	0	
3	2	0	
3	3	0	
3	4	0	
3	5	0	
3	6	0	
3	7	0	
3	8	0	
3	9	0	
3	10	0	
3	11	0	
3	12	0	
3	13	0	
3	14	0	
3	15	0	
3	16	0	
3	17	0	
3	18	0	
3	19	0	
3	20	0	
3	21	0	
3	22	0	
3	23	0	
3	24	0	
3	25	0	
3	26	0	
3	27	0	
3	28	0	
3	29	0	
3	30	0	
3	31	0	
3	32	0	
3	33	0	
3	34	0	
3	35	0	
3	36	0	
3	37	0	
3	38	0	
3	39	0	
3	40	0	
3	41	0	
3	42	0	
3	43	0	
3	44	0	
3	45	0	
3	46	0	
3	47	0	
3	48	0	
3	49	0	
3	50	0	
3	51	0	
3	52	0	
3	53	0	
3	54	0	
3	55	0	
3	56	0	
3	57	0	
3	58	0	
3	59	0	
3	60	0	
3	61	0	
3	62	0	
3	63	0	
3	64	0	
3	65	0	
3	66	0	
3	67	0	
3	68	0	
3	69	0	
3	70	0	
3	71	0	
3	72	0	
3	73	0	
3	74	0	
3	75	0	
3	76	0	
3	77	0	
3	78	0	
3	79	0	
3	80	0	
3	81	0	
3	82	0	
3	83	0	
3	84	0	
3	85	0	
3	86	0	
3	87	0	
3	88	0	
3	89	0	
3	90	0	
3	91	0	
3	92	0	
3	93	0	
3	94	0	
3	95	0	
3	96	0	
3	97	0	
3	98	0	
3	99	0	
3	100	0	
4	0	0	
4	1	0	
4	2	0	
4	3	0	
4	4	0	
4	5	0	
4	6	0	
4	7	0	
4	8	0	
4	9	0	
4	10	0	
4	11	0	
4	12	0	
4	13	0	
4	14	0	
4	15	0	
4	16	0	
4	17	0	
4	18	0	
4	19	0	
4	20	0	
4	21	0	
4	22	0	
4	23	0	
4	24	0	
4	25	0	
4	26	0	
4	27	0	
4	28	0	
4	29	0	
4	30	0	
4	31	0	
4	32	0	
4	33	0	
4	34	0	
4	35	0	
4	36	0	
4	37	0	
4	38	0	
4	39	0	
4	40	0	
4	41	0	
4	42	0	
4	43	0	
4	44	0	
4	45	0	
4	46	0	
4	47	0	
4	48	0	
4	49	0	
4	50	0	
4	51	0	
4	52	0	
4	53	0	
4	54	0	
4	55	0	
4	56	0	
4	57	0	
4	58	0	
4	59	0	
4	60	0	
4	61	0	
4	62	0	
4	63	0	
4	64	0	
4	65	0	
4	66	0	
4	67	0	
4	68	0	
4	69	0	
4	70	0	
4	71	0	
4	72	0	
4	73	0	
4	74	0	
4	75	0	
4	76	0	
4	77	0	
4	78	0	
4	79	0	
4	80	0	
4	81	0	
4	82	0	
4	83	0	
4	84	0	
4	85	0	
4	86	0	
4	87	0	
4	88	0	
4	89	0	
4	90	0	
4	91	0	
4	92	0	
4	93	0	
4	94	0	
4	95	0	
4	96	0	
4	97	0	
4	98	0	
4	99	0	
4	100	0	
5	0	0	
5	1	0	
5	2	0	
5	3	0	
5	4	0	
5	5	0	
5	6	0	
5	7	0	
5	8	0	
5	9	0	
5	10	0	
5	11	0	
5	12	0	
5	13	0	
5	14	0	
5	15	0	
5	16	0	
5	17	0	
5	18	0	
5	19	0	
5	20	0	
5	21	0	
5	22	0	
5	23	0	
5	24	0	
5	25	0	
5	26	0	
5	27	0	
5	28	0	
5	29	0	
5	30	0	
5	31	0	
5	32	0	
5	33	0	
5	34	0	
5	35	0	
5	36	0	
5	37	0	
5	38	0	
5	39	0	
5	40	0	
5	41	0	
5	42	0	
5	43	0	
5	44	0	
5	45	0	
5	46	0	
5	47	0	
5	48	0	
5	49	0	
5	50	0	
5	51	0	
5	52	0	
5	53	0	
5	54	0	
5	55	0	
5	56	0	
5	57	0	
5	58	0	
5	59	0	
5	60	0	
5	61	0	
5	62	0	
5	63	0	
5	64	0	
5	65	0	
5	66	0	
5	67	0	
5	68	0	
5	69	0	
5	70	0	
5	71	0	
5	72	0	
5	73	0	
5	74	0	
5	75	0	
5	76	0	
5	77	0	
5	78	0	
5	79	0	
5	80	0	
5	81	0	
5	82	0	
5	83	0	
5	84	0	
5	85	0	
5	86	0	
5	87	0	
5	88	0	
5	89	0	
5	90	0	
5	91	0	
5	92	0	
5	93	0	
5	94	0	
5	95	0	
5	96	0	
5	97	0	
5	98	0	
5	99	0	
5	100	0	
6	0	0	
6	1	0	
6	2	0	
6	3	0	
6	4	0	
6	5	0	
6	6	0	
6	7	0	
6	8	0	
6	9	0	
6	10	0	
6	11	0	
6	12	0	
6	13	0	
6	14	0	
6	15	0	
6	16	0	
6	17	0	
6	18	0	
6	19	0	
6	20	0	
6	21	0	
6	22	0	
6	23	0	
6	24	0	
6	25	0	
6	26	0	
6	27	0	
6	28	0	
6	29	0	
6	30	0	
6	31	0	
6	32	0	
6	33	0	
6	34	0	
6	35	0	
6	36	0	
6	37	0	
6	38	0	
6	39	0	
6	40	0	
6	41	0	
6	42	0	
6	43	0	
6	44	0	
6	45	0	
6	46	0	
6	47	0	
6	48	0	
6	49	0	
6	50	0	
6	51	0	
6	52	0	
6	53	0	
6	54	0	
6	55	0	
6	56	0	
6	57	0	
6	58	0	
6	59	0	
6	60	0	
6	61	0	
6	62	0	
6	63	0	
6	64	0	
6	65	0	
6	66	0	
6	67	0	
6	68	0	
6	69	0	
6	70	0	
6	71	0	
6	72	0	
6	73	0	
6	74	0	
6	75	0	
6	76	0	
6	77	0	
6	78	0	
6	79	0	
6	80	0	
6	81	0	
6	82	0	
6	83	0	
6	84	0	
6	85	0	
6	86	0	
6	87	0	
6	88	0	
6	89	0	
6	90	0	
6	91	0	
6	92	0	
6	93	0	
6	94	0	
6	95	0	
6	96	0	
6	97	0	
6	98	0	
6	99	0	
6	100	0	
7	0	0	
7	1	0	
7	2	0	
7	3	0	
7	4	0	
7	5	0	
7	6	0	
7	7	0	
7	8	0	
7	9	0	
7	10	0	
7	11	0	
7	12	0	
7	13	0	
7	14	0	
7	15	0	
7	16	0	
7	17	0	
7	18	0	
7	19	0	
7	20	0	
7	21	0	
7	22	0	
7	23	0	
7	24	0	
7	25	0	
7	26	0	
7	27	0	
7	28	0	
7	29	0	
7	30	0	
7	31	0	
7	32	0	
7	33	0	
7	34	0	
7	35	0	
7	36	0	
7	37	0	
7	38	0	
7	39	0	
7	40	0	
7	41	0	
7	42	0	
7	43	0	
7	44	0	
7	45	0	
7	46	0	
7	47	0	
7	48	0	
7	49	0	
7	50	0	
7	51	0	
7	52	0	
7	53	0	
7	54	0	
7	55	0	
7	56	0	
7	57	0	
7	58	0	
7	59	0	
7	60	0	
7	61	0	
7	62	0	
7	63	0	
7	64	0	
7	65	0	
7	66	0	
7	67	0	
7	68	0	
7	69	0	
7	70	0	
7	71	0	
7	72	0	
7	73	0	
7	74	0	
7	75	0	
7	76	0	
7	77	0	
7	78	0	
7	79	0	
7	80	0	
7	81	0	
7	82	0	
7	83	0	
7	84	0	
7	85	0	
7	86	0	
7	87	0	
7	88	0	
7	89	0	
7	90	0	
7	91	0	
7	92	0	
7	93	0	
7	94	0	
7	95	0	
7	96	0	
7	97	0	
7	98	0	
7	99	0	
7	100	0	
8	0	0	
8	1	0	
8	2	0	
8	3	0	
8	4	0	
8	5	0	
8	6	0	
8	7	0	
8	8	0	
8	9	0	
8	10	0	
8	11	0	
8	12	0	
8	13	0	
8	14	0	
8	15	0	
8	16	0	
8	17	0	
8	18	0	
8	19	0	
8	20	0	
8	21	0	
8	22	0	
8	23	0	
8	24	0	
8	25	0	
8	26	0	
8	27	0	
8	28	0	
8	29	0	
8	30	0	
8	31	0	
8	32	0	
8	33	0	
8	34	0	
8	35	0	
8	36	0	
8	37	0	
8	38	0	
8	39	0	
8	40	0	
8	41	0	
8	42	0	
8	43	0	
8	44	0	
8	45	0	
8	46	0	
8	47	0	
8	48	0	
8	49	0	
8	50	0	
8	51	0	
8	52	0	
8	53	0	
8	54	0	
8	55	0	
8	56	0	
8	57	0	
8	58	0	
8	59	0	
8	60	0	
8	61	0	
8	62	0	
8	63	0	
8	64	0	
8	65	0	
8	66	0	
8	67	0	
8	68	0	
8	69	0	
8	70	0	
8	71	0	
8	72	0	
8	73	0	
8	74	0	
8	75	0	
8	76	0	
8	77	0	
8	78	0	
8	79	0	
8	80	0	
8	81	0	
8	82	0	
8	83	0	
8	84	0	
8	85	0	
8	86	0	
8	87	0	
8	88	0	
8	89	0	
8	90	0	
8	91	0	
8	92	0	
8	93	0	
8	94	0	
8	95	0	
8	96	0	
8	97	0	
8	98	0	
8	99	0	
8	100	0	
9	0	0	
9	1	0	
9	2	0	
9	3	0	
9	4	0	
9	5	0	
9	6	0	
9	7	0	
9	8	0	
9	9	0	
9	10	0	
9	11	0	
9	12	0	
9	13	0	
9	14	0	
9	15	0	
9	16	0	
9	17	0	
9	18	0	
9	19	0	
9	20	0	
9	21	0	
9	22	0	
9	23	0	
9	24	0	
9	25	0	
9	26	0	
9	27	0	
9	28	0	
9	29	0	
9	30	0	
9	31	0	
9	32	0	
9	33	0	
9	34	0	
9	35	0	
9	36	0	
9	37	0	
9	38	0	
9	39	0	
9	40	0	
9	41	0	
9	42	0	
9	43	0	
9	44	0	
9	45	0	
9	46	0	
9	47	0	
9	48	0	
9	49	0	
9	50	0	
9	51	0	
9	52	0	
9	53	0	
9	54	0	
9	55	0	
9	56	0	
9	57	0	
9	58	0	
9	59	0	
9	60	0	
9	61	0	
9	62	0	
9	63	0	
9	64	0	
9	65	0	
9	66	0	
9	67	0	
9	68	0	
9	69	0	
9	70	0	
9	71	0	
9	72	0	
9	73	0	
9	74	0	
9	75	0	
9	76	0	
9	77	0	
9	78	0	
9	79	0	
9	80	0	
9	81	0	
9	82	0	
9	83	0	
9	84	0	
9	85	0	
9	86	0	
9	87	0	
9	88	0	
9	89	0	
9	90	0	
9	91	0	
9	92	0	
9	93	0	
9	94	0	
9	95	0	
9	96	0	
9	97	0	
9	98	0	
9	99	0	
9	100	0	
10	0	0	
10	1	0	
10	2	0	
10	3	0	
10	4	0	
10	5	0	
10	6	0	
10	7	0	
10	8	0	
10	9	0	
10	10	0	
10	11	0	
10	12	0	
10	13	0	
10	14	0	
10	15	0	
10	16	0	
10	17	0	
10	18	0	
10	19	0	
10	20	0	
10	21	0	
10	22	0	
10	23	0	
10	24	0	
10	25	0	
10	26	0	
10	27	0	
10	28	0	
10	29	0	
10	30	0	
10	31	0	
10	32	0	
10	33	0	
10	34	0	
10	35	0	
10	36	0	
10	37	0	
10	38	0	
10	39	0	
10	40	0	
10	41	0	
10	42	0	
10	43	0	
10	44	0	
10	45	0	
10	46	0	
10	47	0	
10	48	0	
10	49	0	
10	50	0	
10	51	0	
10	52	0	
10	53	0	
10	54	0	
10	55	0	
10	56	0	
10	57	0	
10	58	0	
10	59	0	
10	60	0	
10	61	0	
10	62	0	
10	63	0	
10	64	0	
10	65	0	
10	66	0	
10	67	0	
10	68	0	
10	69	0	
10	70	0	
10	71	0	
10	72	0	
10	73	0	
10	74	0	
10	75	0	
10	76	0	
10	77	0	
10	78	0	
10	79	0	
10	80	0	
10	81	0	
10	82	0	
10	83	0	
10	84	0	
10	85	0	
10	86	0	
10	87	0	
10	88	0	
10	89	0	
10	90	0	
10	91	0	
10	92	0	
10	93	0	
10	94	0	
10	95	0	
10	96	0	
10	97	0	
10	98	0	
10	99	0	
10	100	0	
11	0	0	
11	1	0	
11	2	0	
11	3	0	
11	4	0	
11	5	0	
11	6	0	
11	7	0	
11	8	0	
11	9	0	
11	10	0	
11	11	0	
11	12	0	
11	13	0	
11	14	0	
11	15	0	
11	16	0	
11	17	0	
11	18	0	
11	19	0	
11	20	0	
11	21	0	
11	22	0	
11	23	0	
11	24	0	
11	25	0	
11	26	0	
11	27	0	
11	28	0	
11	29	0	
11	30	0	
11	31	0	
11	32	0	
11	33	0	
11	34	0	
11	35	0	
11	36	0	
11	37	0	
11	38	0	
11	39	0	
11	40	0	
11	41	0	
11	42	0	
11	43	0	
11	44	0	
11	45	0	
11	46	0	
11	47	0	
11	48	0	
11	49	0	
11	50	0	
11	51	0	
11	52	0	
11	53	0	
11	54	0	
11	55	0	
11	56	0	
11	57	0	
11	58	0	
11	59	0	
11	60	0	
11	61	0	
11	62	0	
11	63	0	
11	64	0	
11	65	0	
11	66	0	
11	67	0	
11	68	0	
11	69	0	
11	70	0	
11	71	0	
11	72	0	
11	73	0	
11	74	0	
11	75	0	
11	76	0	
11	77	0	
11	78	0	
11	79	0	
11	80	0	
11	81	0	
11	82	0	
11	83	0	
11	84	0	
11	85	0	
11	86	0	
11	87	0	
11	88	0	
11	89	0	
11	90	0	
11	91	0	
11	92	0	
11	93	0	
11	94	0	
11	95	0	
11	96	0	
11	97	0	
11	98	0	
11	99	0	
11	100	0	
12	0	0	
12	1	0	
12	2	0	
12	3	0	
12	4	0	
12	5	0	
12	6	0	
12	7	0	
12	8	0	
12	9	0	
12	10	0	
12	11	0	
12	12	0	
12	13	0	
[...]
POINT_DATA	30401
VECTORS d float
-1.00311e-017	-1.81192e-017	0	
-5.40521e-007	-5.54396e-007	0	
-9.4038e-007	-8.78927e-007	0	
-1.29785e-006	-1.12787e-006	0	
-1.62331e-006	-1.32666e-006	0	
-1.92277e-006	-1.47937e-006	0	
-2.19021e-006	-1.58474e-006	0	
-2.40958e-006	-1.63838e-006	0	
-2.56408e-006	-1.65718e-006	0	
-2.75261e-006	-1.71061e-006	0	
-2.9386e-006	-1.76924e-006	0	
-3.08649e-006	-1.81684e-006	0	
-3.38577e-006	-2.01119e-006	0	
-3.65667e-006	-2.31963e-006	0	
-3.8669e-006	-2.67448e-006	0	
-4.24625e-006	-3.00359e-006	0	
-4.36389e-006	-3.20812e-006	0	
-4.30898e-006	-3.51528e-006	0	
-4.44775e-006	-3.74134e-006	0	
-4.65973e-006	-3.86432e-006	0	
-4.85178e-006	-3.9505e-006	0	
-5.02338e-006	-4.04785e-006	0	
-5.18714e-006	-4.15066e-006	0	
-5.33611e-006	-4.25053e-006	0	
-5.46389e-006	-4.34412e-006	0	
-5.56803e-006	-4.44016e-006	0	
-5.65868e-006	-4.53838e-006	0	
-5.74644e-006	-4.62852e-006	0	
-5.82755e-006	-4.70148e-006	0	
-5.90375e-006	-4.76633e-006	0	
-6.00327e-006	-4.84669e-006	0	
-6.14915e-006	-4.91913e-006	0	
-6.25058e-006	-4.9682e-006	0	
-6.31459e-006	-5.03941e-006	0	
-6.38666e-006	-5.1276e-006	0	
-6.46472e-006	-5.20311e-006	0	
-6.51748e-006	-5.27502e-006	0	
-6.55347e-006	-5.35979e-006	0	
-6.59146e-006	-5.44744e-006	0	
-6.62604e-006	-5.53116e-006	0	
-6.64892e-006	-5.61119e-006	0	
-6.66472e-006	-5.69318e-006	0	
-6.67325e-006	-5.77506e-006	0	
-6.6735e-006	-5.8521e-006	0	
-6.66476e-006	-5.93045e-006	0	
-6.64514e-006	-6.00787e-006	0	
-6.6182e-006	-6.08179e-006	0	
-6.58464e-006	-6.15761e-006	0	
-6.54128e-006	-6.23202e-006	0	
-6.48987e-006	-6.30593e-006	0	
-6.43381e-006	-6.38255e-006	0	
-6.371e-006	-6.45623e-006	0	
-6.30118e-006	-6.53014e-006	0	
-6.22898e-006	-6.60405e-006	0	
-6.15407e-006	-6.67472e-006	0	
-6.07295e-006	-6.74361e-006	0	
-5.99106e-006	-6.81068e-006	0	
-5.90562e-006	-6.87014e-006	0	
-5.81459e-006	-6.92553e-006	0	
-5.71937e-006	-6.97848e-006	0	
-5.61804e-006	-7.02122e-006	0	
-5.50765e-006	-7.06344e-006	0	
-5.39035e-006	-7.10019e-006	0	
-5.26548e-006	-7.1289e-006	0	
-5.13123e-006	-7.16027e-006	0	
-4.98918e-006	-7.18508e-006	0	
-4.83873e-006	-7.20831e-006	0	
-4.67954e-006	-7.23312e-006	0	
-4.5148e-006	-7.25213e-006	0	
-4.34093e-006	-7.27146e-006	0	
-4.15995e-006	-7.28996e-006	0	
-3.97472e-006	-7.30682e-006	0	
-3.78218e-006	-7.32342e-006	0	
-3.58414e-006	-7.33792e-006	0	
-3.38221e-006	-7.3511e-006	0	
-3.17495e-006	-7.36385e-006	0	
-2.9619e-006	-7.37443e-006	0	
-2.74343e-006	-7.3833e-006	0	
-2.51992e-006	-7.39192e-006	0	
-2.29454e-006	-7.39684e-006	0	
-2.06492e-006	-7.40093e-006	0	
-1.82874e-006	-7.40481e-006	0	
-1.58893e-006	-7.40391e-006	0	
-1.34462e-006	-7.40444e-006	0	
-1.09469e-006	-7.40127e-006	0	
-8.43168e-007	-7.39608e-006	0	
-5.85352e-007	-7.39257e-006	0	
-3.22718e-007	-7.38557e-006	0	
-5.72682e-008	-7.3812e-006	0	
2.1398e-007	-7.37308e-006	0	
4.88717e-007	-7.3638e-006	0	
7.66428e-007	-7.35807e-006	0	
1.04681e-006	-7.34817e-006	0	
1.33128e-006	-7.34212e-006	0	
1.61981e-006	-7.33762e-006	0	
1.90887e-006	-7.33196e-006	0	
2.20047e-006	-7.32924e-006	0	
2.49249e-006	-7.3256e-006	0	
2.78303e-006	-7.3246e-006	0	
3.0742e-006	-7.32399e-006	0	
3.36385e-006	-7.32359e-006	0	
-3.01725e-018	-6.03378e-018	0	
-4.12653e-007	-3.02615e-007	0	
-8.22566e-007	-5.92491e-007	0	
-1.2001e-006	-8.51254e-007	0	
-1.54379e-006	-1.06628e-006	0	
-1.85929e-006	-1.2463e-006	0	
-2.14277e-006	-1.39585e-006	0	
-2.37913e-006	-1.5271e-006	0	
-2.58438e-006	-1.68068e-006	0	
-2.8388e-006	-1.84979e-006	0	
-3.03323e-006	-1.91958e-006	0	
-3.14106e-006	-1.93096e-006	0	
-3.32639e-006	-2.00467e-006	0	
-3.56152e-006	-2.13515e-006	0	
-3.63677e-006	-2.15859e-006	0	
-4.085e-006	-2.6983e-006	0	
-4.20148e-006	-3.26305e-006	0	
-4.15636e-006	-3.63706e-006	0	
-4.42373e-006	-3.63585e-006	0	
-4.63597e-006	-3.6677e-006	0	
-4.81009e-006	-3.75508e-006	0	
-4.97525e-006	-3.87441e-006	0	
-5.13892e-006	-3.99943e-006	0	
-5.29083e-006	-4.11787e-006	0	
-5.41888e-006	-4.22931e-006	0	
-5.52155e-006	-4.34197e-006	0	
-5.6126e-006	-4.45944e-006	0	
-5.70745e-006	-4.56863e-006	0	
-5.80357e-006	-4.64437e-006	0	
-5.88168e-006	-4.67738e-006	0	
-5.94317e-006	-4.68733e-006	0	
-6.11912e-006	-4.79732e-006	0	
-6.22555e-006	-4.88613e-006	0	
-6.27819e-006	-4.9676e-006	0	
-6.3514e-006	-5.0535e-006	0	
-6.43488e-006	-5.13884e-006	0	
-6.48019e-006	-5.2254e-006	0	
-6.51248e-006	-5.31902e-006	0	
-6.55356e-006	-5.41413e-006	0	
-6.58982e-006	-5.50317e-006	0	
-6.61183e-006	-5.59241e-006	0	
-6.6269e-006	-5.68412e-006	0	
-6.6365e-006	-5.77174e-006	0	
-6.63722e-006	-5.8576e-006	0	
-6.62805e-006	-5.94407e-006	0	
-6.61104e-006	-6.02968e-006	0	
-6.58429e-006	-6.11374e-006	0	
-6.5492e-006	-6.19653e-006	0	
-6.50679e-006	-6.27854e-006	0	
-6.45695e-006	-6.36132e-006	0	
-6.40047e-006	-6.4438e-006	0	
-6.33855e-006	-6.523e-006	0	
-6.26971e-006	-6.60137e-006	0	
-6.19814e-006	-6.67964e-006	0	
-6.12297e-006	-6.75547e-006	0	
-6.04317e-006	-6.82944e-006	0	
-5.96304e-006	-6.89955e-006	0	
-5.87948e-006	-6.96458e-006	0	
-5.79077e-006	-7.02581e-006	0	
-5.698e-006	-7.08171e-006	0	
-5.5979e-006	-7.13388e-006	0	
-5.48953e-006	-7.18183e-006	0	
-5.37494e-006	-7.22409e-006	0	
-5.25061e-006	-7.26374e-006	0	
-5.11729e-006	-7.30072e-006	0	
-4.97736e-006	-7.33446e-006	0	
-4.82626e-006	-7.36669e-006	0	
-4.66836e-006	-7.39647e-006	0	
-4.50434e-006	-7.42316e-006	0	
-4.33062e-006	-7.44982e-006	0	
-4.15126e-006	-7.47476e-006	0	
-3.9663e-006	-7.49733e-006	0	
-3.77388e-006	-7.51963e-006	0	
-3.57726e-006	-7.53944e-006	0	
-3.37582e-006	-7.55731e-006	0	
-3.16813e-006	-7.57538e-006	0	
-2.95592e-006	-7.59146e-006	0	
-2.73876e-006	-7.60511e-006	0	
-2.51739e-006	-7.61763e-006	0	
-2.29164e-006	-7.62729e-006	0	
-2.06132e-006	-7.63581e-006	0	
-1.82638e-006	-7.64384e-006	0	
-1.58761e-006	-7.64916e-006	0	
-1.34417e-006	-7.65227e-006	0	
-1.09608e-006	-7.65355e-006	0	
-8.43813e-007	-7.65403e-006	0	
-5.8644e-007	-7.65378e-006	0	
-3.24396e-007	-7.65134e-006	0	
-5.90216e-008	-7.64828e-006	0	
2.112e-007	-7.64551e-006	0	
4.85789e-007	-7.6407e-006	0	
7.63146e-007	-7.63496e-006	0	
1.04439e-006	-7.6312e-006	0	
1.33023e-006	-7.62787e-006	0	
1.61792e-006	-7.6236e-006	0	
1.90728e-006	-7.6208e-006	0	
2.19903e-006	-7.61856e-006	0	
2.49095e-006	-7.61567e-006	0	
2.78286e-006	-7.61495e-006	0	
3.07438e-006	-7.61465e-006	0	
3.36527e-006	-7.61455e-006	0	
-1.96003e-018	-4.60876e-018	0	
-3.49834e-007	-2.17402e-007	0	
-7.36972e-007	-4.52521e-007	0	
-1.11189e-006	-6.83858e-007	0	
-1.4615e-006	-8.9771e-007	0	
-1.78332e-006	-1.09302e-006	0	
-2.07241e-006	-1.27275e-006	0	
-2.32375e-006	-1.43877e-006	0	
-2.55467e-006	-1.59034e-006	0	
-2.79483e-006	-1.7332e-006	0	
-3.00489e-006	-1.87024e-006	0	
-3.1862e-006	-2.02168e-006	0	
-3.42121e-006	-2.18384e-006	0	
-3.57879e-006	-2.24278e-006	0	
-3.66755e-006	-2.25623e-006	0	
-3.84373e-006	-2.35974e-006	0	
-3.94958e-006	-3.22782e-006	0	
-4.13802e-006	-3.32956e-006	0	
-4.41299e-006	-3.34643e-006	0	
-4.59987e-006	-3.41898e-006	0	
-4.75401e-006	-3.5486e-006	0	
-4.91336e-006	-3.70236e-006	0	
-5.08101e-006	-3.85437e-006	0	
-5.23882e-006	-3.99229e-006	0	
-5.36899e-006	-4.11892e-006	0	
-5.46821e-006	-4.24646e-006	0	
-5.55627e-006	-4.38402e-006	0	
-5.65935e-006	-4.51806e-006	0	
-5.7775e-006	-4.62092e-006	0	
-5.88203e-006	-4.67416e-006	0	
-5.94057e-006	-4.68707e-006	0	
-6.06471e-006	-4.75585e-006	0	
-6.19814e-006	-4.85078e-006	0	
-6.22391e-006	-4.88194e-006	0	
-6.28162e-006	-4.93679e-006	0	
-6.40647e-006	-5.07531e-006	0	
-6.44173e-006	-5.18088e-006	0	
-6.46256e-006	-5.28143e-006	0	
-6.51432e-006	-5.38333e-006	0	
-6.55368e-006	-5.47667e-006	0	
-6.56878e-006	-5.57381e-006	0	
-6.58424e-006	-5.67703e-006	0	
-6.59929e-006	-5.77325e-006	0	
-6.59949e-006	-5.86631e-006	0	
-6.58904e-006	-5.96171e-006	0	
-6.57329e-006	-6.05479e-006	0	
-6.54776e-006	-6.1464e-006	0	
-6.51177e-006	-6.23751e-006	0	
-6.46951e-006	-6.32807e-006	0	
-6.42082e-006	-6.41799e-006	0	
-6.36466e-006	-6.506e-006	0	
-6.30355e-006	-6.59243e-006	0	
-6.23601e-006	-6.67778e-006	0	
-6.16414e-006	-6.76115e-006	0	
-6.08824e-006	-6.84282e-006	0	
-6.0106e-006	-6.92265e-006	0	
-5.93204e-006	-6.99842e-006	0	
-5.85077e-006	-7.06957e-006	0	
-5.76479e-006	-7.1362e-006	0	
-5.67419e-006	-7.19769e-006	0	
-5.57597e-006	-7.25535e-006	0	
-5.4701e-006	-7.30872e-006	0	
-5.35594e-006	-7.35829e-006	0	
-5.23283e-006	-7.40584e-006	0	
-5.10056e-006	-7.44917e-006	0	
-4.96103e-006	-7.48977e-006	0	
-4.8119e-006	-7.52893e-006	0	
-4.65512e-006	-7.5645e-006	0	
-4.4906e-006	-7.59808e-006	0	
-4.3181e-006	-7.63165e-006	0	
-4.14033e-006	-7.6625e-006	0	
-3.95558e-006	-7.69096e-006	0	
-3.76368e-006	-7.71938e-006	0	
-3.56779e-006	-7.74575e-006	0	
-3.36643e-006	-7.76903e-006	0	
-3.15889e-006	-7.79115e-006	0	
-2.94713e-006	-7.81176e-006	0	
-2.73192e-006	-7.83039e-006	0	
-2.51224e-006	-7.84769e-006	0	
-2.28668e-006	-7.86221e-006	0	
-2.05651e-006	-7.87545e-006	0	
-1.82246e-006	-7.88808e-006	0	
-1.5845e-006	-7.89719e-006	0	
-1.34198e-006	-7.9044e-006	0	
-1.0941e-006	-7.91099e-006	0	
-8.42571e-007	-7.91447e-006	0	
-5.86329e-007	-7.91714e-006	0	
-3.25347e-007	-7.91903e-006	0	
-5.95981e-008	-7.91861e-006	0	
2.10365e-007	-7.91903e-006	0	
4.84193e-007	-7.91822e-006	0	
7.61691e-007	-7.9152e-006	0	
1.04378e-006	-7.91392e-006	0	
1.32896e-006	-7.91158e-006	0	
1.61609e-006	-7.90834e-006	0	
1.90571e-006	-7.9076e-006	0	
2.19789e-006	-7.90651e-006	0	
2.48997e-006	-7.90466e-006	0	
2.78302e-006	-7.90502e-006	0	
3.0756e-006	-7.90582e-006	0	
3.36649e-006	-7.90562e-006	0	
-1.92699e-018	-4.08317e-018	0	
-3.27127e-007	-1.86332e-007	0	
-6.83573e-007	-3.85049e-007	0	
-1.04205e-006	-5.90459e-007	0	
-1.38615e-006	-7.93957e-007	0	
-1.70686e-006	-9.90293e-007	0	
-1.99902e-006	-1.17734e-006	0	
-2.26244e-006	-1.35245e-006	0	
-2.50727e-006	-1.51384e-006	0	
-2.7422e-006	-1.66757e-006	0	
-2.95952e-006	-1.81733e-006	0	
-3.16239e-006	-1.95782e-006	0	
-3.3786e-006	-2.09681e-006	0	
-3.55622e-006	-2.22474e-006	0	
-3.71616e-006	-2.36174e-006	0	
-3.89246e-006	-2.47245e-006	0	
-3.97649e-006	-2.50278e-006	0	
-4.18501e-006	-2.84387e-006	0	
-4.36547e-006	-3.05313e-006	0	
-4.54201e-006	-3.21302e-006	0	
-4.68525e-006	-3.37085e-006	0	
-4.84305e-006	-3.53732e-006	0	
-5.01535e-006	-3.69977e-006	0	
-5.17845e-006	-3.85672e-006	0	
-5.31219e-006	-4.00779e-006	0	
-5.40833e-006	-4.15386e-006	0	
-5.49361e-006	-4.30016e-006	0	
-5.6032e-006	-4.43847e-006	0	
-5.73573e-006	-4.55819e-006	0	
-5.85987e-006	-4.66348e-006	0	
-5.97344e-006	-4.78074e-006	0	
-6.1168e-006	-4.90123e-006	0	
-6.20441e-006	-4.95425e-006	0	
-6.23728e-006	-4.97831e-006	0	
-6.264e-006	-5.00847e-006	0	
-6.3593e-006	-5.11201e-006	0	
-6.3998e-006	-5.18607e-006	0	
-6.3799e-006	-5.21754e-006	0	
-6.45827e-006	-5.32756e-006	0	
-6.52266e-006	-5.45715e-006	0	
-6.52176e-006	-5.56704e-006	0	
-6.53628e-006	-5.67571e-006	0	
-6.56392e-006	-5.77747e-006	0	
-6.55859e-006	-5.87715e-006	0	
-6.54618e-006	-5.98363e-006	0	
-6.53342e-006	-6.08543e-006	0	
-6.50805e-006	-6.18289e-006	0	
-6.47153e-006	-6.2819e-006	0	
-6.43006e-006	-6.38009e-006	0	
-6.3805e-006	-6.47638e-006	0	
-6.32549e-006	-6.57136e-006	0	
-6.26452e-006	-6.66662e-006	0	
-6.19766e-006	-6.75922e-006	0	
-6.12551e-006	-6.84802e-006	0	
-6.05004e-006	-6.93709e-006	0	
-5.9741e-006	-7.02393e-006	0	
-5.89711e-006	-7.10528e-006	0	
-5.81882e-006	-7.18332e-006	0	
-5.73557e-006	-7.25627e-006	0	
-5.64728e-006	-7.32288e-006	0	
-5.5524e-006	-7.38645e-006	0	
-5.44809e-006	-7.44646e-006	0	
-5.33504e-006	-7.50155e-006	0	
-5.21344e-006	-7.5542e-006	0	
-5.08283e-006	-7.6039e-006	0	
-4.94297e-006	-7.64988e-006	0	
-4.79534e-006	-7.69554e-006	0	
-4.63942e-006	-7.73839e-006	0	
-4.47465e-006	-7.77794e-006	0	
-4.30368e-006	-7.81721e-006	0	
-4.12642e-006	-7.85446e-006	0	
-3.94181e-006	-7.88939e-006	0	
-3.75122e-006	-7.92358e-006	0	
-3.55547e-006	-7.9553e-006	0	
-3.35441e-006	-7.9845e-006	0	
-3.14815e-006	-8.01237e-006	0	
-2.93749e-006	-8.0373e-006	0	
-2.72273e-006	-8.06055e-006	0	
-2.50281e-006	-8.08339e-006	0	
-2.27932e-006	-8.10299e-006	0	
-2.05084e-006	-8.12026e-006	0	
-1.81773e-006	-8.13588e-006	0	
-1.58034e-006	-8.14851e-006	0	
-1.33803e-006	-8.16024e-006	0	
-1.09068e-006	-8.17099e-006	0	
-8.40066e-007	-8.17764e-006	0	
-5.85216e-007	-8.1837e-006	0	
-3.24839e-007	-8.18977e-006	0	
-5.92102e-008	-8.1922e-006	0	
2.10456e-007	-8.19483e-006	0	
4.83915e-007	-8.19768e-006	0	
7.61453e-007	-8.19724e-006	0	
1.04321e-006	-8.19668e-006	0	
1.32764e-006	-8.19655e-006	0	
1.61454e-006	-8.19507e-006	0	
1.90499e-006	-8.19449e-006	0	
2.19785e-006	-8.19449e-006	0	
2.49e-006	-8.19403e-006	0	
2.7827e-006	-8.19387e-006	0	
3.07629e-006	-8.19357e-006	0	
3.3658e-006	-8.19346e-006	0	
-1.90778e-018	-3.74927e-018	0	
-3.12818e-007	-1.70924e-007	0	
-6.47422e-007	-3.5139e-007	0	
-9.88761e-007	-5.3987e-007	0	
-1.32234e-006	-7.31689e-007	0	
-1.63831e-006	-9.22321e-007	0	
-1.9316e-006	-1.10808e-006	0	
-2.20188e-006	-1.28583e-006	0	
-2.45348e-006	-1.45429e-006	0	
-2.69034e-006	-1.61537e-006	0	
-2.91251e-006	-1.77003e-006	0	
-3.12427e-006	-1.91668e-006	0	
-3.33031e-006	-2.0593e-006	0	
-3.51906e-006	-2.19814e-006	0	
-3.69377e-006	-2.32787e-006	0	
-3.86374e-006	-2.45758e-006	0	
-3.99693e-006	-2.589e-006	0	
-4.15934e-006	-2.71284e-006	0	
-4.23626e-006	-2.7504e-006	0	
-4.46344e-006	-2.99998e-006	0	
-4.59578e-006	-3.19336e-006	0	
-4.76229e-006	-3.36906e-006	0	
-4.94075e-006	-3.54443e-006	0	
-5.1089e-006	-3.72639e-006	0	
-5.24746e-006	-3.90666e-006	0	
-5.34099e-006	-4.07979e-006	0	
-5.41408e-006	-4.24288e-006	0	
-5.53228e-006	-4.39297e-006	0	
-5.67914e-006	-4.52487e-006	0	
-5.82296e-006	-4.64192e-006	0	
-5.95451e-006	-4.74747e-006	0	
-6.08203e-006	-4.85214e-006	0	
-6.17722e-006	-4.95493e-006	0	
-6.23657e-006	-5.06938e-006	0	
-6.31938e-006	-5.20839e-006	0	
-6.38735e-006	-5.30236e-006	0	
-6.41562e-006	-5.34992e-006	0	
-6.39386e-006	-5.36697e-006	0	
-6.41478e-006	-5.42337e-006	0	
-6.48186e-006	-5.53072e-006	0	
-6.45235e-006	-5.57425e-006	0	
-6.4503e-006	-5.63403e-006	0	
-6.52915e-006	-5.78314e-006	0	
-6.5151e-006	-5.89997e-006	0	
-6.49436e-006	-6.01049e-006	0	
-6.49573e-006	-6.11804e-006	0	
-6.4652e-006	-6.22015e-006	0	
-6.42469e-006	-6.32807e-006	0	
-6.38625e-006	-6.43536e-006	0	
-6.33816e-006	-6.53929e-006	0	
-6.28123e-006	-6.64313e-006	0	
-6.22112e-006	-6.7461e-006	0	
-6.15581e-006	-6.84448e-006	0	
-6.08343e-006	-6.94074e-006	0	
-6.00707e-006	-7.03807e-006	0	
-5.93134e-006	-7.1338e-006	0	
-5.8582e-006	-7.22374e-006	0	
-5.78359e-006	-7.30791e-006	0	
-5.70443e-006	-7.38603e-006	0	
-5.61901e-006	-7.45815e-006	0	
-5.52645e-006	-7.52625e-006	0	
-5.42467e-006	-7.59103e-006	0	
-5.3132e-006	-7.65153e-006	0	
-5.19238e-006	-7.70895e-006	0	
-5.06362e-006	-7.76405e-006	0	
-4.92411e-006	-7.8166e-006	0	
-4.77567e-006	-7.86836e-006	0	
-4.62077e-006	-7.91773e-006	0	
-4.45681e-006	-7.96344e-006	0	
-4.28632e-006	-8.00875e-006	0	
-4.1098e-006	-8.05192e-006	0	
-3.92562e-006	-8.09219e-006	0	
-3.7353e-006	-8.13159e-006	0	
-3.54095e-006	-8.16833e-006	0	
-3.34101e-006	-8.20304e-006	0	
-3.13506e-006	-8.23678e-006	0	
-2.92538e-006	-8.26719e-006	0	
-2.71173e-006	-8.29622e-006	0	
-2.49258e-006	-8.32375e-006	0	
-2.26951e-006	-8.34746e-006	0	
-2.04245e-006	-8.36827e-006	0	
-1.81089e-006	-8.388e-006	0	
-1.57444e-006	-8.4052e-006	0	
-1.33301e-006	-8.42011e-006	0	
-1.08759e-006	-8.43414e-006	0	
-8.3752e-007	-8.44519e-006	0	
-5.82834e-007	-8.45388e-006	0	
-3.22783e-007	-8.46217e-006	0	
-5.85999e-008	-8.46826e-006	0	
2.10287e-007	-8.47237e-006	0	
4.83465e-007	-8.47619e-006	0	
7.60839e-007	-8.47876e-006	0	
1.04199e-006	-8.48e-006	0	
1.32707e-006	-8.48102e-006	0	
1.61462e-006	-8.48173e-006	0	
1.90484e-006	-8.4817e-006	0	
2.19721e-006	-8.48228e-006	0	
2.49024e-006	-8.48276e-006	0	
2.78305e-006	-8.48283e-006	0	
3.07692e-006	-8.48287e-006	0	
3.36886e-006	-8.48365e-006	0	
-1.85497e-018	-3.56516e-018	0	
-3.00562e-007	-1.63303e-007	0	
-6.19613e-007	-3.34782e-007	0	
-9.46843e-007	-5.12762e-007	0	
-1.26983e-006	-6.9512e-007	0	
-1.57968e-006	-8.79045e-007	0	
-1.87154e-006	-1.0613e-006	0	
-2.14427e-006	-1.23906e-006	0	
-2.39943e-006	-1.41078e-006	0	
-2.63915e-006	-1.57637e-006	0	
-2.86518e-006	-1.73595e-006	0	
-3.07993e-006	-1.88971e-006	0	
-3.28449e-006	-2.03928e-006	0	
-3.47638e-006	-2.18498e-006	0	
-3.65619e-006	-2.32529e-006	0	
-3.82465e-006	-2.46155e-006	0	
-3.98052e-006	-2.59017e-006	0	
-4.1333e-006	-2.71629e-006	0	
-4.25026e-006	-2.8514e-006	0	
-4.40756e-006	-2.98812e-006	0	
-4.46187e-006	-3.01963e-006	0	
-4.66489e-006	-3.18173e-006	0	
-4.85129e-006	-3.36625e-006	0	
-5.02302e-006	-3.58375e-006	0	
-5.16547e-006	-3.81008e-006	0	
-5.26717e-006	-4.08167e-006	0	
-5.32133e-006	-4.23792e-006	0	
-5.45329e-006	-4.36655e-006	0	
-5.62111e-006	-4.49106e-006	0	
-5.78622e-006	-4.61016e-006	0	
-5.927e-006	-4.72307e-006	0	
-6.04089e-006	-4.84012e-006	0	
-6.132e-006	-4.96455e-006	0	
-6.20551e-006	-5.08498e-006	0	
-6.28089e-006	-5.19983e-006	0	
-6.35021e-006	-5.31019e-006	0	
-6.39183e-006	-5.41689e-006	0	
-6.41793e-006	-5.54241e-006	0	
-6.4785e-006	-5.67582e-006	0	
-6.50366e-006	-5.7438e-006	0	
-6.47931e-006	-5.77383e-006	0	
-6.44878e-006	-5.8037e-006	0	
-6.48594e-006	-5.90065e-006	0	
-6.46363e-006	-5.96439e-006	0	
-6.39941e-006	-5.99722e-006	0	
-6.45912e-006	-6.14947e-006	0	
-6.42749e-006	-6.26916e-006	0	
-6.36933e-006	-6.38244e-006	0	
-6.3445e-006	-6.49629e-006	0	
-6.29243e-006	-6.60336e-006	0	
-6.22919e-006	-6.7189e-006	0	
-6.17376e-006	-6.83194e-006	0	
-6.11253e-006	-6.93655e-006	0	
-6.03615e-006	-7.03981e-006	0	
-5.9548e-006	-7.14743e-006	0	
-5.8805e-006	-7.25356e-006	0	
-5.81395e-006	-7.35191e-006	0	
-5.74629e-006	-7.44223e-006	0	
-5.67203e-006	-7.52469e-006	0	
-5.5906e-006	-7.60118e-006	0	
-5.5006e-006	-7.67389e-006	0	
-5.40079e-006	-7.74231e-006	0	
-5.28985e-006	-7.80773e-006	0	
-5.1702e-006	-7.87153e-006	0	
-5.04135e-006	-7.93227e-006	0	
-4.90245e-006	-7.99011e-006	0	
-4.75552e-006	-8.04691e-006	0	
-4.60118e-006	-8.10178e-006	0	
-4.43778e-006	-8.15378e-006	0	
-4.26712e-006	-8.20495e-006	0	
-4.09101e-006	-8.25372e-006	0	
-3.90721e-006	-8.29986e-006	0	
-3.71742e-006	-8.34546e-006	0	
-3.52402e-006	-8.38795e-006	0	
-3.32468e-006	-8.42787e-006	0	
-3.11946e-006	-8.46632e-006	0	
-2.91095e-006	-8.50252e-006	0	
-2.69854e-006	-8.53644e-006	0	
-2.48107e-006	-8.5679e-006	0	
-2.25858e-006	-8.59631e-006	0	
-2.03303e-006	-8.62191e-006	0	
-1.80289e-006	-8.6457e-006	0	
-1.56677e-006	-8.66762e-006	0	
-1.3264e-006	-8.6859e-006	0	
-1.08306e-006	-8.70219e-006	0	
-8.34186e-007	-8.71696e-006	0	
-5.79456e-007	-8.72862e-006	0	
-3.20792e-007	-8.73834e-006	0	
-5.7738e-008	-8.74663e-006	0	
2.10486e-007	-8.75292e-006	0	
4.83244e-007	-8.75827e-006	0	
7.60694e-007	-8.76307e-006	0	
1.04131e-006	-8.76563e-006	0	
1.32629e-006	-8.76761e-006	0	
1.61416e-006	-8.76958e-006	0	
1.90395e-006	-8.77009e-006	0	
2.19651e-006	-8.77027e-006	0	
2.49136e-006	-8.77105e-006	0	
2.78542e-006	-8.77205e-006	0	
3.0787e-006	-8.77324e-006	0	
3.37215e-006	-8.77449e-006	0	
-1.72268e-018	-3.42568e-018	0	
-2.8597e-007	-1.59663e-007	0	
-5.95075e-007	-3.26792e-007	0	
-9.12429e-007	-4.98213e-007	0	
-1.22631e-006	-6.74114e-007	0	
-1.52973e-006	-8.52939e-007	0	
-1.81848e-006	-1.03213e-006	0	
-2.09094e-006	-1.20922e-006	0	
-2.34736e-006	-1.38257e-006	0	
-2.58891e-006	-1.55143e-006	0	
-2.81707e-006	-1.71559e-006	0	
-3.03328e-006	-1.87528e-006	0	
-3.23825e-006	-2.03113e-006	0	
-3.43164e-006	-2.18334e-006	0	
-3.61363e-006	-2.33151e-006	0	
-3.78475e-006	-2.47548e-006	0	
-3.94614e-006	-2.61514e-006	0	
-4.09694e-006	-2.75201e-006	0	
-4.23758e-006	-2.88397e-006	0	
-4.37974e-006	-3.01825e-006	0	
-4.48437e-006	-3.17117e-006	0	
-4.66099e-006	-3.3573e-006	0	
-4.7605e-006	-3.42522e-006	0	
-4.77656e-006	-3.43762e-006	0	
-5.04414e-006	-3.83904e-006	0	
-5.14616e-006	-4.14808e-006	0	
-5.23984e-006	-4.21561e-006	0	
-5.37821e-006	-4.30044e-006	0	
-5.56516e-006	-4.42098e-006	0	
-5.74425e-006	-4.55643e-006	0	
-5.89618e-006	-4.69869e-006	0	
-5.99372e-006	-4.83749e-006	0	
-6.0827e-006	-4.97668e-006	0	
-6.16534e-006	-5.10426e-006	0	
-6.23733e-006	-5.22605e-006	0	
-6.30133e-006	-5.34999e-006	0	
-6.35036e-006	-5.4716e-006	0	
-6.39001e-006	-5.58674e-006	0	
-6.4388e-006	-5.69927e-006	0	
-6.47336e-006	-5.80725e-006	0	
-6.47604e-006	-5.92115e-006	0	
-6.50626e-006	-6.06209e-006	0	
-6.52192e-006	-6.15345e-006	0	
-6.48982e-006	-6.19542e-006	0	
-6.4149e-006	-6.21162e-006	0	