# vtk DataFile Version 4.1
vtk output
ASCII
DATASET UNSTRUCTURED_GRID

POINTS	30401	float
0	0	0	
0	1	0	
0	2	0	
0	3	0	
0	4	0	
0	5	0	
0	6	0	
0	7	0	
0	8	0	
0	9	0	
0	10	0	
0	11	0	
0	12	0	
0	13	0	
0	14	0	
0	15	0	
0	16	0	
0	17	0	
0	18	0	
0	19	0	
0	20	0	
0	21	0	
0	22	0	
0	23	0	
0	24	0	
0	25	0	
0	26	0	
0	27	0	
0	28	0	
0	29	0	
0	30	0	
0	31	0	
0	32	0	
0	33	0	
0	34	0	
0	35	0	
0	36	0	
0	37	0	
0	38	0	
0	39	0	
0	40	0	
0	41	0	
0	42	0	
0	43	0	
0	44	0	
0	45	0	
0	46	0	
0	47	0	
0	48	0	
0	49	0	
0	50	0	
0	51	0	
0	52	0	
0	53	0	
0	54	0	
0	55	0	
0	56	0	
0	57	0	
0	58	0	
0	59	0	
0	60	0	
0	61	0	
0	62	0	
0	63	0	
0	64	0	
0	65	0	
0	66	0	
0	67	0	
0	68	0	
0	69	0	
0	70	0	
0	71	0	
0	72	0	
0	73	0	
0	74	0	
0	75	0	
0	76	0	
0	77	0	
0	78	0	
0	79	0	
0	80	0	
0	81	0	
0	82	0	
0	83	0	
0	84	0	
0	85	0	
0	86	0	
0	87	0	
0	88	0	
0	89	0	
0	90	0	
0	91	0	
0	92	0	
0	93	0	
0	94	0	
0	95	0	
0	96	0	
0	97	0	
0	98	0	
0	99	0	
0	100	0	
1	0	0	
1	1	0	
1	2	0	
1	3	0	
1	4	0	
1	5	0	
1	6	0	
1	7	0	
1	8	0	
1	9	0	
1	10	0	
1	11	0	
1	12	0	
1	13	0	
1	14	0	
1	15	0	
1	16	0	
1	17	0	
1	18	0	
1	19	0	
1	20	0	
1	21	0	
1	22	0	
1	23	0	
1	24	0	
1	25	0	
1	26	0	
1	27	0	
1	28	0	
1	29	0	
1	30	0	
1	31	0	
1	32	0	
1	33	0	
1	34	0	
1	35	0	
1	36	0	
1	37	0	
1	38	0	
1	39	0	
1	40	0	
1	41	0	
1	42	0	
1	43	0	
1	44	0	
1	45	0	
1	46	0	
1	47	0	
1	48	0	
1	49	0	
1	50	0	
1	51	0	
1	52	0	
1	53	0	
1	54	0	
1	55	0	
1	56	0	
1	57	0	
1	58	0	
1	59	0	
1	60	0	
1	61	0	
1	62	0	
1	63	0	
1	64	0	
1	65	0	
1	66	0	
1	67	0	
1	68	0	
1	69	0	
1	70	0	
1	71	0	
1	72	0	
1	73	0	
1	74	0	
1	75	0	
1	76	0	
1	77	0	
1	78	0	
1	79	0	
1	80	0	
1	81	0	
1	82	0	
1	83	0	
1	84	0	
1	85	0	
1	86	0	
1	87	0	
1	88	0	
1	89	0	
1	90	0	
1	91	0	
1	92	0	
1	93	0	
1	94	0	
1	95	0	
1	96	0	
1	97	0	
1	98	0	
1	99	0	
1	100	0	
2	0	0	
2	1	0	
2	2	0	
2	3	0	
2	4	0	
2	5	0	
2	6	0	
2	7	0	
2	8	0	
2	9	0	
2	10	0	
2	11	0	
2	12	0	
2	13	0	
2	14	0	
2	15	0	
2	16	0	
2	17	0	
2	18	0	
2	19	0	
2	20	0	
2	21	0	
2	22	0	
2	23	0	
2	24	0	
2	25	0	
2	26	0	
2	27	0	
2	28	0	
2	29	0	
2	30	0	
2	31	0	
2	32	0	
2	33	0	
2	34	0	
2	35	0	
2	36	0	
2	37	0	
2	38	0	
2	39	0	
2	40	0	
2	41	0	
2	42	0	
2	43	0	
2	44	0	
2	45	0	
2	46	0	
2	47	0	
2	48	0	
2	49	0	
2	50	0	
2	51	0	
2	52	0	
2	53	0	
2	54	0	
2	55	0	
2	56	0	
2	57	0	
2	58	0	
2	59	0	
2	60	0	
2	61	0	
2	62	0	
2	63	0	
2	64	0	
2	65	0	
2	66	0	
2	67	0	
2	68	0	
2	69	0	
2	70	0	
2	71	0	
2	72	0	
2	73	0	
2	74	0	
2	75	0	
2	76	0	
2	77	0	
2	78	0	
2	79	0	
2	80	0	
2	81	0	
2	82	0	
2	83	0	
2	84	0	
2	85	0	
2	86	0	
2	87	0	
2	88	0	
2	89	0	
2	90	0	
2	91	0	
2	92	0	
2	93	0	
2	94	0	
2	95	0	
2	96	0	
2	97	0	
2	98	0	
2	99	0	
2	100	0	
3	0	0	
3	1	0	
3	2	0	
3	3	0	
3	4	0	
3	5	0	
3	6	0	
3	7	0	
3	8	0	
3	9	0	
3	10	0	
3	11	0	
3	12	0	
3	13	0	
3	14	0	
3	15	0	
3	16	0	
3	17	0	
3	18	0	
3	19	0	
3	20	0	
3	21	0	
3	22	0	
3	23	0	
3	24	0	
3	25	0	
3	26	0	
3	27	0	
3	28	0	
3	29	0	
3	30	0	
3	31	0	
3	32	0	
3	33	0	
3	34	0	
3	35	0	
3	36	0	
3	37	0	
3	38	0	
3	39	0	
3	40	0	
3	41	0	
3	42	0	
3	43	0	
3	44	0	
3	45	0	
3	46	0	
3	47	0	
3	48	0	
3	49	0	
3	50	0	
3	51	0	
3	52	0	
3	53	0	
3	54	0	
3	55	0	
3	56	0	
3	57	0	
3	58	0	
3	59	0	
3	60	0	
3	61	0	
3	62	0	
3	63	0	
3	64	0	
3	65	0	
3	66	0	
3	67	0	
3	68	0	
3	69	0	
3	70	0	
3	71	0	
3	72	0	
3	73	0	
3	74	0	
3	75	0	
3	76	0	
3	77	0	
3	78	0	
3	79	0	
3	80	0	
3	81	0	
3	82	0	
3	83	0	
3	84	0	
3	85	0	
3	86	0	
3	87	0	
3	88	0	
3	89	0	
3	90	0	
3	91	0	
3	92	0	
3	93	0	
3	94	0	
3	95	0	
3	96	0	
3	97	0	
3	98	0	
3	99	0	
3	100	0	
4	0	0	
4	1	0	
4	2	0	
4	3	0	
4	4	0	
4	5	0	
4	6	0	
4	7	0	
4	8	0	
4	9	0	
4	10	0	
4	11	0	
4	12	0	
4	13	0	
4	14	0	
4	15	0	
4	16	0	
4	17	0	
4	18	0	
4	19	0	
4	20	0	
4	21	0	
4	22	0	
4	23	0	
4	24	0	
4	25	0	
4	26	0	
4	27	0	
4	28	0	
4	29	0	
4	30	0	
4	31	0	
4	32	0	
4	33	0	
4	34	0	
4	35	0	
4	36	0	
4	37	0	
4	38	0	
4	39	0	
4	40	0	
4	41	0	
4	42	0	
4	43	0	
4	44	0	
4	45	0	
4	46	0	
4	47	0	
4	48	0	
4	49	0	
4	50	0	
4	51	0	
4	52	0	
4	53	0	
4	54	0	
4	55	0	
4	56	0	
4	57	0	
4	58	0	
4	59	0	
4	60	0	
4	61	0	
4	62	0	
4	63	0	
4	64	0	
4	65	0	
4	66	0	
4	67	0	
4	68	0	
4	69	0	
4	70	0	
4	71	0	
4	72	0	
4	73	0	
4	74	0	
4	75	0	
4	76	0	
4	77	0	
4	78	0	
4	79	0	
4	80	0	
4	81	0	
4	82	0	
4	83	0	
4	84	0	
4	85	0	
4	86	0	
4	87	0	
4	88	0	
4	89	0	
4	90	0	
4	91	0	
4	92	0	
4	93	0	
4	94	0	
4	95	0	
4	96	0	
4	97	0	
4	98	0	
4	99	0	
4	100	0	
5	0	0	
5	1	0	
5	2	0	
5	3	0	
5	4	0	
5	5	0	
5	6	0	
5	7	0	
5	8	0	
5	9	0	
5	10	0	
5	11	0	
5	12	0	
5	13	0	
5	14	0	
5	15	0	
5	16	0	
5	17	0	
5	18	0	
5	19	0	
5	20	0	
5	21	0	
5	22	0	
5	23	0	
5	24	0	
5	25	0	
5	26	0	
5	27	0	
5	28	0	
5	29	0	
5	30	0	
5	31	0	
5	32	0	
5	33	0	
5	34	0	
5	35	0	
5	36	0	
5	37	0	
5	38	0	
5	39	0	
5	40	0	
5	41	0	
5	42	0	
5	43	0	
5	44	0	
5	45	0	
5	46	0	
5	47	0	
5	48	0	
5	49	0	
5	50	0	
5	51	0	
5	52	0	
5	53	0	
5	54	0	
5	55	0	
5	56	0	
5	57	0	
5	58	0	
5	59	0	
5	60	0	
5	61	0	
5	62	0	
5	63	0	
5	64	0	
5	65	0	
5	66	0	
5	67	0	
5	68	0	
5	69	0	
5	70	0	
5	71	0	
5	72	0	
5	73	0	
5	74	0	
5	75	0	
5	76	0	
5	77	0	
5	78	0	
5	79	0	
5	80	0	
5	81	0	
5	82	0	
5	83	0	
5	84	0	
5	85	0	
5	86	0	
5	87	0	
5	88	0	
5	89	0	
5	90	0	
5	91	0	
5	92	0	
5	93	0	
5	94	0	
5	95	0	
5	96	0	
5	97	0	
5	98	0	
5	99	0	
5	100	0	
6	0	0	
6	1	0	
6	2	0	
6	3	0	
6	4	0	
6	5	0	
6	6	0	
6	7	0	
6	8	0	
6	9	0	
6	10	0	
6	11	0	
6	12	0	
6	13	0	
6	14	0	
6	15	0	
6	16	0	
6	17	0	
6	18	0	
6	19	0	
6	20	0	
6	21	0	
6	22	0	
6	23	0	
6	24	0	
6	25	0	
6	26	0	
6	27	0	
6	28	0	
6	29	0	
6	30	0	
6	31	0	
6	32	0	
6	33	0	
6	34	0	
6	35	0	
6	36	0	
6	37	0	
6	38	0	
6	39	0	
6	40	0	
6	41	0	
6	42	0	
6	43	0	
6	44	0	
6	45	0	
6	46	0	
6	47	0	
6	48	0	
6	49	0	
6	50	0	
6	51	0	
6	52	0	
6	53	0	
6	54	0	
6	55	0	
6	56	0	
6	57	0	
6	58	0	
6	59	0	
6	60	0	
6	61	0	
6	62	0	
6	63	0	
6	64	0	
6	65	0	
6	66	0	
6	67	0	
6	68	0	
6	69	0	
6	70	0	
6	71	0	
6	72	0	
6	73	0	
6	74	0	
6	75	0	
6	76	0	
6	77	0	
6	78	0	
6	79	0	
6	80	0	
6	81	0	
6	82	0	
6	83	0	
6	84	0	
6	85	0	
6	86	0	
6	87	0	
6	88	0	
6	89	0	
6	90	0	
6	91	0	
6	92	0	
6	93	0	
6	94	0	
6	95	0	
6	96	0	
6	97	0	
6	98	0	
6	99	0	
6	100	0	
7	0	0	
7	1	0	
7	2	0	
7	3	0	
7	4	0	
7	5	0	
7	6	0	
7	7	0	
7	8	0	
7	9	0	
7	10	0	
7	11	0	
7	12	0	
7	13	0	
7	14	0	
7	15	0	
7	16	0	
7	17	0	
7	18	0	
7	19	0	
7	20	0	
7	21	0	
7	22	0	
7	23	0	
7	24	0	
7	25	0	
7	26	0	
7	27	0	
7	28	0	
7	29	0	
7	30	0	
7	31	0	
7	32	0	
7	33	0	
7	34	0	
7	35	0	
7	36	0	
7	37	0	
7	38	0	
7	39	0	
7	40	0	
7	41	0	
7	42	0	
7	43	0	
7	44	0	
7	45	0	
7	46	0	
7	47	0	
7	48	0	
7	49	0	
7	50	0	
7	51	0	
7	52	0	
7	53	0	
7	54	0	
7	55	0	
7	56	0	
7	57	0	
7	58	0	
7	59	0	
7	60	0	
7	61	0	
7	62	0	
7	63	0	
7	64	0	
7	65	0	
7	66	0	
7	67	0	
7	68	0	
7	69	0	
7	70	0	
7	71	0	
7	72	0	
7	73	0	
7	74	0	
7	75	0	
7	76	0	
7	77	0	
7	78	0	
7	79	0	
7	80	0	
7	81	0	
7	82	0	
7	83	0	
7	84	0	
7	85	0	
7	86	0	
7	87	0	
7	88	0	
7	89	0	
7	90	0	
7	91	0	
7	92	0	
7	93	0	
7	94	0	
7	95	0	
7	96	0	
7	97	0	
7	98	0	
7	99	0	
7	100	0	
8	0	0	
8	1	0	
8	2	0	
8	3	0	
8	4	0	
8	5	0	
8	6	0	
8	7	0	
8	8	0	
8	9	0	
8	10	0	
8	11	0	
8	12	0	
8	13	0	
8	14	0	
8	15	0	
8	16	0	
8	17	0	
8	18	0	
8	19	0	
8	20	0	
8	21	0	
8	22	0	
8	23	0	
8	24	0	
8	25	0	
8	26	0	
8	27	0	
8	28	0	
8	29	0	
8	30	0	
8	31	0	
8	32	0	
8	33	0	
8	34	0	
8	35	0	
8	36	0	
8	37	0	
8	38	0	
8	39	0	
8	40	0	
8	41	0	
8	42	0	
8	43	0	
8	44	0	
8	45	0	
8	46	0	
8	47	0	
8	48	0	
8	49	0	
8	50	0	
8	51	0	
8	52	0	
8	53	0	
8	54	0	
8	55	0	
8	56	0	
8	57	0	
8	58	0	
8	59	0	
8	60	0	
8	61	0	
8	62	0	
8	63	0	
8	64	0	
8	65	0	
8	66	0	
8	67	0	
8	68	0	
8	69	0	
8	70	0	
8	71	0	
8	72	0	
8	73	0	
8	74	0	
8	75	0	
8	76	0	
8	77	0	
8	78	0	
8	79	0	
8	80	0	
8	81	0	
8	82	0	
8	83	0	
8	84	0	
8	85	0	
8	86	0	
8	87	0	
8	88	0	
8	89	0	
8	90	0	
8	91	0	
8	92	0	
8	93	0	
8	94	0	
8	95	0	
8	96	0	
8	97	0	
8	98	0	
8	99	0	
8	100	0	
9	0	0	
9	1	0	
9	2	0	
9	3	0	
9	4	0	
9	5	0	
9	6	0	
9	7	0	
9	8	0	
9	9	0	
9	10	0	
9	11	0	
9	12	0	
9	13	0	
9	14	0	
9	15	0	
9	16	0	
9	17	0	
9	18	0	
9	19	0	
9	20	0	
9	21	0	
9	22	0	
9	23	0	
9	24	0	
9	25	0	
9	26	0	
9	27	0	
9	28	0	
9	29	0	
9	30	0	
9	31	0	
9	32	0	
9	33	0	
9	34	0	
9	35	0	
9	36	0	
9	37	0	
9	38	0	
9	39	0	
9	40	0	
9	41	0	
9	42	0	
9	43	0	
9	44	0	
9	45	0	
9	46	0	
9	47	0	
9	48	0	
9	49	0	
9	50	0	
9	51	0	
9	52	0	
9	53	0	
9	54	0	
9	55	0	
9	56	0	
9	57	0	
9	58	0	
9	59	0	
9	60	0	
9	61	0	
9	62	0	
9	63	0	
9	64	0	
9	65	0	
9	66	0	
9	67	0	
9	68	0	
9	69	0	
9	70	0	
9	71	0	
9	72	0	
9	73	0	
9	74	0	
9	75	0	
9	76	0	
9	77	0	
9	78	0	
9	79	0	
9	80	0	
9	81	0	
9	82	0	
9	83	0	
9	84	0	
9	85	0	
9	86	0	
9	87	0	
9	88	0	
9	89	0	
9	90	0	
9	91	0	
9	92	0	
9	93	0	
9	94	0	
9	95	0	
9	96	0	
9	97	0	
9	98	0	
9	99	0	
9	100	0	
10	0	0	
10	1	0	
10	2	0	
10	3	0	
10	4	0	
10	5	0	
10	6	0	
10	7	0	
10	8	0	
10	9	0	
10	10	0	
10	11	0	
10	12	0	
10	13	0	
10	14	0	
10	15	0	
10	16	0	
10	17	0	
10	18	0	
10	19	0	
10	20	0	
10	21	0	
10	22	0	
10	23	0	
10	24	0	
10	25	0	
10	26	0	
10	27	0	
10	28	0	
10	29	0	
10	30	0	
10	31	0	
10	32	0	
10	33	0	
10	34	0	
10	35	0	
10	36	0	
10	37	0	
10	38	0	
10	39	0	
10	40	0	
10	41	0	
10	42	0	
10	43	0	
10	44	0	
10	45	0	
10	46	0	
10	47	0	
10	48	0	
10	49	0	
10	50	0	
10	51	0	
10	52	0	
10	53	0	
10	54	0	
10	55	0	
10	56	0	
10	57	0	
10	58	0	
10	59	0	
10	60	0	
10	61	0	
10	62	0	
10	63	0	
10	64	0	
10	65	0	
10	66	0	
10	67	0	
10	68	0	
10	69	0	
10	70	0	
10	71	0	
10	72	0	
10	73	0	
10	74	0	
10	75	0	
10	76	0	
10	77	0	
10	78	0	
10	79	0	
10	80	0	
10	81	0	
10	82	0	
10	83	0	
10	84	0	
10	85	0	
10	86	0	
10	87	0	
10	88	0	
10	89	0	
10	90	0	
10	91	0	
10	92	0	
10	93	0	
10	94	0	
10	95	0	
10	96	0	
10	97	0	
10	98	0	
10	99	0	
10	100	0	
11	0	0	
11	1	0	
11	2	0	
11	3	0	
11	4	0	
11	5	0	
11	6	0	
11	7	0	
11	8	0	
11	9	0	
11	10	0	
11	11	0	
11	12	0	
11	13	0	
11	14	0	
11	15	0	
11	16	0	
11	17	0	
11	18	0	
11	19	0	
11	20	0	
11	21	0	
11	22	0	
11	23	0	
11	24	0	
11	25	0	
11	26	0	
11	27	0	
11	28	0	
11	29	0	
11	30	0	
11	31	0	
11	32	0	
11	33	0	
11	34	0	
11	35	0	
11	36	0	
11	37	0	
11	38	0	
11	39	0	
11	40	0	
11	41	0	
11	42	0	
11	43	0	
11	44	0	
11	45	0	
11	46	0	
11	47	0	
11	48	0	
11	49	0	
11	50	0	
11	51	0	
11	52	0	
11	53	0	
11	54	0	
11	55	0	
11	56	0	
11	57	0	
11	58	0	
11	59	0	
11	60	0	
11	61	0	
11	62	0	
11	63	0	
11	64	0	
11	65	0	
11	66	0	
11	67	0	
11	68	0	
11	69	0	
11	70	0	
11	71	0	
11	72	0	
11	73	0	
11	74	0	
11	75	0	
11	76	0	
11	77	0	
11	78	0	
11	79	0	
11	80	0	
11	81	0	
11	82	0	
11	83	0	
11	84	0	
11	85	0	
11	86	0	
11	87	0	
11	88	0	
11	89	0	
11	90	0	
11	91	0	
11	92	0	
11	93	0	
11	94	0	
11	95	0	
11	96	0	
11	97	0	
11	98	0	
11	99	0	
11	100	0	
12	0	0	
12	1	0	
12	2	0	
12	3	0	
12	4	0	
12	5	0	
12	6	0	
12	7	0	
12	8	0	
12	9	0	
12	10	0	
12	11	0	
12	12	0	
12	13	0	
[...]
POINT_DATA	30401
VECTORS d float
-8.41283e-018	-1.51926e-017	0	
-4.52927e-007	-4.64476e-007	0	
-7.85973e-007	-7.36277e-007	0	
-1.08137e-006	-9.46039e-007	0	
-1.34844e-006	-1.11668e-006	0	
-1.59406e-006	-1.2541e-006	0	
-1.81763e-006	-1.36156e-006	0	
-2.01645e-006	-1.43695e-006	0	
-2.17726e-006	-1.47296e-006	0	
-2.27874e-006	-1.47822e-006	0	
-2.4134e-006	-1.51581e-006	0	
-2.58652e-006	-1.59525e-006	0	
-2.6551e-006	-1.60989e-006	0	
-2.87005e-006	-1.77202e-006	0	
-3.00408e-006	-1.88564e-006	0	
-3.08642e-006	-1.99525e-006	0	
-3.20813e-006	-2.1163e-006	0	
-3.3147e-006	-2.23332e-006	0	
-3.41965e-006	-2.3598e-006	0	
-3.5226e-006	-2.48058e-006	0	
-3.62026e-006	-2.60026e-006	0	
-3.71111e-006	-2.71613e-006	0	
-3.79369e-006	-2.82791e-006	0	
-3.8659e-006	-2.93665e-006	0	
-3.92813e-006	-3.04466e-006	0	
-3.98344e-006	-3.15306e-006	0	
-4.03384e-006	-3.26109e-006	0	
-4.0788e-006	-3.36785e-006	0	
-4.11907e-006	-3.47276e-006	0	
-4.15458e-006	-3.57649e-006	0	
-4.18477e-006	-3.67768e-006	0	
-4.2095e-006	-3.77738e-006	0	
-4.22843e-006	-3.87511e-006	0	
-4.24219e-006	-3.9703e-006	0	
-4.25004e-006	-4.06452e-006	0	
-4.2518e-006	-4.15648e-006	0	
-4.24843e-006	-4.24746e-006	0	
-4.23933e-006	-4.33795e-006	0	
-4.22588e-006	-4.42665e-006	0	
-4.20809e-006	-4.51528e-006	0	
-4.18583e-006	-4.60295e-006	0	
-4.16039e-006	-4.68983e-006	0	
-4.13223e-006	-4.77643e-006	0	
-4.10085e-006	-4.861e-006	0	
-4.06671e-006	-4.94483e-006	0	
-4.031e-006	-5.02749e-006	0	
-3.99352e-006	-5.10785e-006	0	
-3.95368e-006	-5.1872e-006	0	
-3.91306e-006	-5.26464e-006	0	
-3.87195e-006	-5.34031e-006	0	
-3.82839e-006	-5.414e-006	0	
-3.78439e-006	-5.48449e-006	0	
-3.74036e-006	-5.55322e-006	0	
-3.69551e-006	-5.61934e-006	0	
-3.65032e-006	-5.68196e-006	0	
-3.60416e-006	-5.7415e-006	0	
-3.55736e-006	-5.79658e-006	0	
-3.51065e-006	-5.84753e-006	0	
-3.46307e-006	-5.89419e-006	0	
-3.41422e-006	-5.93597e-006	0	
-3.36369e-006	-5.97304e-006	0	
-3.31151e-006	-6.00431e-006	0	
-3.25768e-006	-6.03024e-006	0	
-3.20068e-006	-6.05025e-006	0	
-3.14063e-006	-6.0637e-006	0	
-3.07696e-006	-6.07133e-006	0	
-3.00867e-006	-6.07151e-006	0	
-2.93596e-006	-6.06499e-006	0	
-2.85786e-006	-6.05265e-006	0	
-2.77271e-006	-6.03304e-006	0	
-2.68062e-006	-6.00745e-006	0	
-2.58084e-006	-5.97541e-006	0	
-2.4728e-006	-5.93639e-006	0	
-2.35568e-006	-5.89193e-006	0	
-2.22816e-006	-5.8412e-006	0	
-2.09025e-006	-5.78526e-006	0	
-1.9424e-006	-5.72483e-006	0	
-1.78312e-006	-5.659e-006	0	
-1.61126e-006	-5.5893e-006	0	
-1.42739e-006	-5.51605e-006	0	
-1.23184e-006	-5.43945e-006	0	
-1.02355e-006	-5.36105e-006	0	
-8.02799e-007	-5.28111e-006	0	
-5.6933e-007	-5.20035e-006	0	
-3.23201e-007	-5.11906e-006	0	
-6.52224e-008	-5.03767e-006	0	
2.04708e-007	-4.95789e-006	0	
4.85948e-007	-4.87969e-006	0	
7.7824e-007	-4.80418e-006	0	
1.08177e-006	-4.73241e-006	0	
1.39417e-006	-4.66418e-006	0	
1.71509e-006	-4.60032e-006	0	
2.04506e-006	-4.5417e-006	0	
2.38071e-006	-4.48915e-006	0	
2.7219e-006	-4.44282e-006	0	
3.06816e-006	-4.40275e-006	0	
3.41675e-006	-4.37039e-006	0	
3.76765e-006	-4.34511e-006	0	
4.11966e-006	-4.32698e-006	0	
4.47042e-006	-4.31671e-006	0	
4.82318e-006	-4.31025e-006	0	
-2.53385e-018	-5.07113e-018	0	
-3.45785e-007	-2.54243e-007	0	
-6.87034e-007	-4.97992e-007	0	
-9.98635e-007	-7.16366e-007	0	
-1.2799e-006	-8.99329e-007	0	
-1.53732e-006	-1.05437e-006	0	
-1.77198e-006	-1.18505e-006	0	
-1.98167e-006	-1.29443e-006	0	
-2.15569e-006	-1.38966e-006	0	
-2.29576e-006	-1.49652e-006	0	
-2.48181e-006	-1.62768e-006	0	
-2.61759e-006	-1.67832e-006	0	
-2.68583e-006	-1.68562e-006	0	
-2.80433e-006	-1.73387e-006	0	
-2.95634e-006	-1.8205e-006	0	
-3.00303e-006	-1.83815e-006	0	
-3.16212e-006	-1.99706e-006	0	
-3.25857e-006	-2.12768e-006	0	
-3.36785e-006	-2.25626e-006	0	
-3.46924e-006	-2.38304e-006	0	
-3.56776e-006	-2.5099e-006	0	
-3.66063e-006	-2.63312e-006	0	
-3.74485e-006	-2.75343e-006	0	
-3.81779e-006	-2.87068e-006	0	
-3.88034e-006	-2.98645e-006	0	
-3.93587e-006	-3.10141e-006	0	
-3.98651e-006	-3.21539e-006	0	
-4.03223e-006	-3.32742e-006	0	
-4.0734e-006	-3.43746e-006	0	
-4.10977e-006	-3.54645e-006	0	
-4.14074e-006	-3.65322e-006	0	
-4.16635e-006	-3.75763e-006	0	
-4.18627e-006	-3.8608e-006	0	
-4.20043e-006	-3.96192e-006	0	
-4.20876e-006	-4.06128e-006	0	
-4.21132e-006	-4.15928e-006	0	
-4.20838e-006	-4.25539e-006	0	
-4.2001e-006	-4.35044e-006	0	
-4.18706e-006	-4.44438e-006	0	
-4.16949e-006	-4.53701e-006	0	
-4.14793e-006	-4.62838e-006	0	
-4.12289e-006	-4.71848e-006	0	
-4.09499e-006	-4.8077e-006	0	
-4.06424e-006	-4.89538e-006	0	
-4.03082e-006	-4.98145e-006	0	
-3.99575e-006	-5.06615e-006	0	
-3.95892e-006	-5.14884e-006	0	
-3.92004e-006	-5.22972e-006	0	
-3.88004e-006	-5.30886e-006	0	
-3.83927e-006	-5.38574e-006	0	
-3.79722e-006	-5.46052e-006	0	
-3.75457e-006	-5.53266e-006	0	
-3.71127e-006	-5.60159e-006	0	
-3.66757e-006	-5.66808e-006	0	
-3.62364e-006	-5.73205e-006	0	
-3.57913e-006	-5.79218e-006	0	
-3.53433e-006	-5.84819e-006	0	
-3.48916e-006	-5.90054e-006	0	
-3.44305e-006	-5.94863e-006	0	
-3.39617e-006	-5.99224e-006	0	
-3.34819e-006	-6.03143e-006	0	
-3.29833e-006	-6.06501e-006	0	
-3.24663e-006	-6.09286e-006	0	
-3.19225e-006	-6.11596e-006	0	
-3.13466e-006	-6.1337e-006	0	
-3.07366e-006	-6.14524e-006	0	
-3.00821e-006	-6.1506e-006	0	
-2.93787e-006	-6.14989e-006	0	
-2.86211e-006	-6.14343e-006	0	
-2.77976e-006	-6.13131e-006	0	
-2.69041e-006	-6.11319e-006	0	
-2.59336e-006	-6.08871e-006	0	
-2.48758e-006	-6.05846e-006	0	
-2.37273e-006	-6.02346e-006	0	
-2.24794e-006	-5.98316e-006	0	
-2.11215e-006	-5.93724e-006	0	
-1.96584e-006	-5.88681e-006	0	
-1.80821e-006	-5.83291e-006	0	
-1.63832e-006	-5.77541e-006	0	
-1.45635e-006	-5.71361e-006	0	
-1.26189e-006	-5.64905e-006	0	
-1.05416e-006	-5.58312e-006	0	
-8.33971e-007	-5.51521e-006	0	
-6.01055e-007	-5.4459e-006	0	
-3.55403e-007	-5.3763e-006	0	
-9.7277e-008	-5.3069e-006	0	
1.73379e-007	-5.23827e-006	0	
4.55636e-007	-5.17098e-006	0	
7.48863e-007	-5.10592e-006	0	
1.05334e-006	-5.04352e-006	0	
1.36742e-006	-4.98388e-006	0	
1.69008e-006	-4.92793e-006	0	
2.02137e-006	-4.87648e-006	0	
2.3592e-006	-4.82977e-006	0	
2.70305e-006	-4.78815e-006	0	
3.05199e-006	-4.75196e-006	0	
3.40358e-006	-4.72152e-006	0	
3.75699e-006	-4.69722e-006	0	
4.11129e-006	-4.67936e-006	0	
4.46454e-006	-4.66835e-006	0	
4.81629e-006	-4.66327e-006	0	
-1.65e-018	-3.88744e-018	0	
-2.93516e-007	-1.83027e-007	0	
-6.15891e-007	-3.80507e-007	0	
-9.25339e-007	-5.74688e-007	0	
-1.21176e-006	-7.54008e-007	0	
-1.47519e-006	-9.1681e-007	0	
-1.71508e-006	-1.06428e-006	0	
-1.92884e-006	-1.19971e-006	0	
-2.11241e-006	-1.32493e-006	0	
-2.27615e-006	-1.43851e-006	0	
-2.44757e-006	-1.54589e-006	0	
-2.59565e-006	-1.64794e-006	0	
-2.71649e-006	-1.75796e-006	0	
-2.87577e-006	-1.87615e-006	0	
-2.97634e-006	-1.91855e-006	0	
-3.02662e-006	-1.92887e-006	0	
-3.11337e-006	-1.97196e-006	0	
-3.16749e-006	-1.99501e-006	0	
-3.31898e-006	-2.15097e-006	0	
-3.40934e-006	-2.28967e-006	0	
-3.51338e-006	-2.42563e-006	0	
-3.60684e-006	-2.55725e-006	0	
-3.69366e-006	-2.68612e-006	0	
-3.7682e-006	-2.80904e-006	0	
-3.82928e-006	-2.93159e-006	0	
-3.88493e-006	-3.05324e-006	0	
-3.93646e-006	-3.17313e-006	0	
-3.98329e-006	-3.29104e-006	0	
-4.02538e-006	-3.40668e-006	0	
-4.06254e-006	-3.52078e-006	0	
-4.0944e-006	-3.63303e-006	0	
-4.12106e-006	-3.7432e-006	0	
-4.14175e-006	-3.85171e-006	0	
-4.15649e-006	-3.95796e-006	0	
-4.16565e-006	-4.06259e-006	0	
-4.16893e-006	-4.1656e-006	0	
-4.16642e-006	-4.26665e-006	0	
-4.1588e-006	-4.36646e-006	0	
-4.14627e-006	-4.46471e-006	0	
-4.12917e-006	-4.56154e-006	0	
-4.10847e-006	-4.65708e-006	0	
-4.08415e-006	-4.75057e-006	0	
-4.05644e-006	-4.84282e-006	0	
-4.02634e-006	-4.93377e-006	0	
-3.99404e-006	-5.02256e-006	0	
-3.95945e-006	-5.10956e-006	0	
-3.92312e-006	-5.1949e-006	0	
-3.88553e-006	-5.278e-006	0	
-3.84631e-006	-5.35879e-006	0	
-3.80581e-006	-5.43739e-006	0	
-3.76493e-006	-5.51372e-006	0	
-3.72368e-006	-5.58742e-006	0	
-3.68144e-006	-5.65815e-006	0	
-3.63864e-006	-5.72616e-006	0	
-3.59584e-006	-5.79114e-006	0	
-3.55279e-006	-5.85263e-006	0	
-3.50955e-006	-5.91067e-006	0	
-3.4658e-006	-5.96512e-006	0	
-3.42118e-006	-6.01542e-006	0	
-3.37613e-006	-6.06144e-006	0	
-3.33034e-006	-6.10298e-006	0	
-3.2827e-006	-6.13949e-006	0	
-3.23291e-006	-6.17102e-006	0	
-3.18056e-006	-6.19775e-006	0	
-3.12526e-006	-6.21932e-006	0	
-3.06662e-006	-6.23577e-006	0	
-3.00349e-006	-6.247e-006	0	
-2.93542e-006	-6.2527e-006	0	
-2.86177e-006	-6.25284e-006	0	
-2.78179e-006	-6.24742e-006	0	
-2.69507e-006	-6.23654e-006	0	
-2.60044e-006	-6.22037e-006	0	
-2.49656e-006	-6.19903e-006	0	
-2.3834e-006	-6.17278e-006	0	
-2.26127e-006	-6.14188e-006	0	
-2.12829e-006	-6.10638e-006	0	
-1.98337e-006	-6.06662e-006	0	
-1.82686e-006	-6.02329e-006	0	
-1.659e-006	-5.97644e-006	0	
-1.47881e-006	-5.92601e-006	0	
-1.28518e-006	-5.87301e-006	0	
-1.07874e-006	-5.81815e-006	0	
-8.59861e-007	-5.7614e-006	0	
-6.27554e-007	-5.7033e-006	0	
-3.819e-007	-5.64475e-006	0	
-1.23948e-007	-5.58604e-006	0	
1.46679e-007	-5.52765e-006	0	
4.29547e-007	-5.47026e-006	0	
7.23268e-007	-5.41411e-006	0	
1.02794e-006	-5.35966e-006	0	
1.34284e-006	-5.30775e-006	0	
1.66676e-006	-5.25897e-006	0	
1.99901e-006	-5.21362e-006	0	
2.3384e-006	-5.17193e-006	0	
2.68387e-006	-5.13454e-006	0	
3.03413e-006	-5.10172e-006	0	
3.38772e-006	-5.07358e-006	0	
3.74345e-006	-5.05046e-006	0	
4.09962e-006	-5.03223e-006	0	
4.45472e-006	-5.01905e-006	0	
4.80773e-006	-5.01149e-006	0	
-1.63256e-018	-3.45613e-018	0	
-2.75813e-007	-1.56944e-007	0	
-5.73167e-007	-3.23232e-007	0	
-8.69124e-007	-4.94644e-007	0	
-1.15124e-006	-6.64008e-007	0	
-1.41396e-006	-8.26624e-007	0	
-1.65471e-006	-9.80978e-007	0	
-1.87131e-006	-1.12683e-006	0	
-2.06386e-006	-1.26284e-006	0	
-2.23997e-006	-1.38745e-006	0	
-2.40722e-006	-1.50512e-006	0	
-2.56015e-006	-1.6193e-006	0	
-2.69921e-006	-1.72548e-006	0	
-2.84502e-006	-1.82884e-006	0	
-2.9608e-006	-1.92482e-006	0	
-3.06376e-006	-2.02528e-006	0	
-3.16805e-006	-2.0971e-006	0	
-3.1953e-006	-2.10507e-006	0	
-3.26542e-006	-2.14922e-006	0	
-3.30757e-006	-2.17602e-006	0	
-3.46044e-006	-2.34252e-006	0	
-3.54507e-006	-2.48867e-006	0	
-3.64577e-006	-2.62737e-006	0	
-3.71747e-006	-2.75262e-006	0	
-3.77471e-006	-2.88215e-006	0	
-3.83063e-006	-3.01054e-006	0	
-3.88378e-006	-3.13514e-006	0	
-3.93181e-006	-3.2584e-006	0	
-3.9747e-006	-3.37983e-006	0	
-4.01263e-006	-3.4993e-006	0	
-4.04559e-006	-3.61704e-006	0	
-4.07309e-006	-3.73322e-006	0	
-4.09466e-006	-3.84723e-006	0	
-4.11055e-006	-3.95894e-006	0	
-4.1208e-006	-4.06876e-006	0	
-4.12486e-006	-4.17636e-006	0	
-4.12295e-006	-4.28225e-006	0	
-4.11585e-006	-4.38669e-006	0	
-4.10373e-006	-4.48912e-006	0	
-4.08712e-006	-4.59009e-006	0	
-4.067e-006	-4.68968e-006	0	
-4.04332e-006	-4.78718e-006	0	
-4.01644e-006	-4.883e-006	0	
-3.98719e-006	-4.97721e-006	0	
-3.95574e-006	-5.06898e-006	0	
-3.92188e-006	-5.15854e-006	0	
-3.88612e-006	-5.2464e-006	0	
-3.84946e-006	-5.33191e-006	0	
-3.81143e-006	-5.41495e-006	0	
-3.77164e-006	-5.49573e-006	0	
-3.73119e-006	-5.57379e-006	0	
-3.69074e-006	-5.64933e-006	0	
-3.6497e-006	-5.72287e-006	0	
-3.60813e-006	-5.79326e-006	0	
-3.56646e-006	-5.85994e-006	0	
-3.5247e-006	-5.92368e-006	0	
-3.48251e-006	-5.98432e-006	0	
-3.44015e-006	-6.04111e-006	0	
-3.39765e-006	-6.09389e-006	0	
-3.35408e-006	-6.14266e-006	0	
-3.30948e-006	-6.18716e-006	0	
-3.26367e-006	-6.22766e-006	0	
-3.21573e-006	-6.26387e-006	0	
-3.16529e-006	-6.29507e-006	0	
-3.11207e-006	-6.32137e-006	0	
-3.05542e-006	-6.34309e-006	0	
-2.99418e-006	-6.35993e-006	0	
-2.92825e-006	-6.37179e-006	0	
-2.85692e-006	-6.37842e-006	0	
-2.77897e-006	-6.37975e-006	0	
-2.69412e-006	-6.37655e-006	0	
-2.60161e-006	-6.36911e-006	0	
-2.49992e-006	-6.35657e-006	0	
-2.38867e-006	-6.33881e-006	0	
-2.26842e-006	-6.31703e-006	0	
-2.13781e-006	-6.29163e-006	0	
-1.99479e-006	-6.26232e-006	0	
-1.8399e-006	-6.22895e-006	0	
-1.67386e-006	-6.19177e-006	0	
-1.49496e-006	-6.15207e-006	0	
-1.30233e-006	-6.11002e-006	0	
-1.09768e-006	-6.06536e-006	0	
-8.80296e-007	-6.01902e-006	0	
-6.48555e-007	-5.97152e-006	0	
-4.0327e-007	-5.92311e-006	0	
-1.46126e-007	-5.87404e-006	0	
1.23795e-007	-5.82473e-006	0	
4.06402e-007	-5.77593e-006	0	
7.00159e-007	-5.72797e-006	0	
1.00485e-006	-5.68114e-006	0	
1.31982e-006	-5.63623e-006	0	
1.64423e-006	-5.59361e-006	0	
1.9771e-006	-5.55337e-006	0	
2.31738e-006	-5.51611e-006	0	
2.66347e-006	-5.48236e-006	0	
3.01437e-006	-5.45209e-006	0	
3.36922e-006	-5.42558e-006	0	
3.72653e-006	-5.40342e-006	0	
4.08417e-006	-5.38562e-006	0	
4.4406e-006	-5.37218e-006	0	
4.794e-006	-5.3631e-006	0	
-1.63869e-018	-3.19109e-018	0	
-2.6637e-007	-1.44131e-007	0	
-5.46304e-007	-2.94709e-007	0	
-8.27737e-007	-4.51752e-007	0	
-1.10052e-006	-6.11662e-007	0	
-1.35825e-006	-7.70584e-007	0	
-1.59727e-006	-9.25789e-007	0	
-1.81576e-006	-1.0752e-006	0	
-2.01435e-006	-1.21696e-006	0	
-2.19664e-006	-1.35024e-006	0	
-2.36616e-006	-1.47662e-006	0	
-2.52284e-006	-1.5972e-006	0	
-2.66939e-006	-1.71085e-006	0	
-2.80904e-006	-1.8203e-006	0	
-2.93424e-006	-1.92571e-006	0	
-3.04759e-006	-2.02359e-006	0	
-3.15033e-006	-2.12129e-006	0	
-3.22932e-006	-2.22308e-006	0	
-3.32964e-006	-2.31224e-006	0	
-3.34079e-006	-2.32101e-006	0	
-3.40002e-006	-2.36902e-006	0	
-3.43161e-006	-2.40056e-006	0	
-3.59879e-006	-2.57616e-006	0	
-3.67685e-006	-2.71577e-006	0	
-3.7144e-006	-2.84157e-006	0	
-3.77692e-006	-2.97276e-006	0	
-3.82869e-006	-3.10097e-006	0	
-3.87701e-006	-3.23047e-006	0	
-3.92141e-006	-3.35733e-006	0	
-3.96044e-006	-3.48261e-006	0	
-3.99445e-006	-3.60593e-006	0	
-4.02282e-006	-3.72748e-006	0	
-4.04543e-006	-3.84702e-006	0	
-4.06276e-006	-3.96442e-006	0	
-4.07391e-006	-4.07936e-006	0	
-4.07871e-006	-4.19192e-006	0	
-4.07785e-006	-4.30275e-006	0	
-4.07142e-006	-4.41159e-006	0	
-4.05963e-006	-4.51863e-006	0	
-4.04348e-006	-4.62394e-006	0	
-4.02365e-006	-4.72737e-006	0	
-4.00054e-006	-4.82901e-006	0	
-3.97471e-006	-4.92856e-006	0	
-3.94631e-006	-5.0258e-006	0	
-3.91565e-006	-5.1209e-006	0	
-3.8829e-006	-5.21363e-006	0	
-3.84802e-006	-5.30377e-006	0	
-3.81175e-006	-5.39183e-006	0	
-3.77452e-006	-5.47791e-006	0	
-3.73594e-006	-5.56131e-006	0	
-3.69628e-006	-5.64187e-006	0	
-3.6563e-006	-5.7201e-006	0	
-3.61592e-006	-5.79589e-006	0	
-3.5754e-006	-5.86868e-006	0	
-3.53499e-006	-5.93831e-006	0	
-3.49451e-006	-6.00486e-006	0	
-3.45339e-006	-6.06814e-006	0	
-3.41222e-006	-6.12798e-006	0	
-3.37129e-006	-6.18422e-006	0	
-3.32907e-006	-6.23666e-006	0	
-3.28551e-006	-6.2852e-006	0	
-3.24101e-006	-6.32981e-006	0	
-3.19488e-006	-6.37008e-006	0	
-3.14631e-006	-6.40607e-006	0	
-3.09487e-006	-6.43797e-006	0	
-3.03976e-006	-6.46522e-006	0	
-2.98023e-006	-6.48775e-006	0	
-2.91629e-006	-6.5059e-006	0	
-2.84706e-006	-6.51959e-006	0	
-2.77098e-006	-6.52842e-006	0	
-2.68749e-006	-6.53289e-006	0	
-2.59667e-006	-6.53359e-006	0	
-2.49772e-006	-6.52959e-006	0	
-2.38905e-006	-6.52062e-006	0	
-2.26985e-006	-6.50785e-006	0	
-2.14029e-006	-6.49173e-006	0	
-1.99968e-006	-6.47188e-006	0	
-1.84721e-006	-6.4482e-006	0	
-1.68272e-006	-6.42123e-006	0	
-1.50522e-006	-6.39167e-006	0	
-1.31454e-006	-6.35932e-006	0	
-1.11138e-006	-6.32429e-006	0	
-8.94832e-007	-6.28769e-006	0	
-6.64199e-007	-6.2498e-006	0	
-4.20864e-007	-6.21027e-006	0	
-1.65104e-007	-6.1698e-006	0	
1.04238e-007	-6.12906e-006	0	
3.86172e-007	-6.08831e-006	0	
6.79047e-007	-6.04821e-006	0	
9.8329e-007	-6.00887e-006	0	
1.29819e-006	-5.97036e-006	0	
1.62203e-006	-5.9331e-006	0	
1.95425e-006	-5.89763e-006	0	
2.29449e-006	-5.86439e-006	0	
2.64113e-006	-5.83346e-006	0	
2.99271e-006	-5.80517e-006	0	
3.34837e-006	-5.78007e-006	0	
3.7061e-006	-5.75821e-006	0	
4.06395e-006	-5.74017e-006	0	
4.4212e-006	-5.72634e-006	0	
4.77616e-006	-5.71621e-006	0	
-1.63498e-018	-3.06659e-018	0	
-2.60267e-007	-1.38165e-007	0	
-5.27668e-007	-2.81316e-007	0	
-7.96013e-007	-4.3046e-007	0	
-1.05843e-006	-5.83949e-007	0	
-1.30937e-006	-7.3903e-007	0	
-1.54512e-006	-8.92978e-007	0	
-1.76375e-006	-1.04342e-006	0	
-1.9653e-006	-1.18848e-006	0	
-2.15139e-006	-1.32726e-006	0	
-2.3239e-006	-1.45994e-006	0	
-2.48414e-006	-1.58689e-006	0	
-2.63369e-006	-1.70841e-006	0	
-2.77334e-006	-1.82572e-006	0	
-2.9015e-006	-1.93929e-006	0	
-3.01832e-006	-2.04856e-006	0	
-3.12349e-006	-2.15418e-006	0	
-3.21883e-006	-2.25435e-006	0	
-3.31069e-006	-2.35738e-006	0	
-3.37717e-006	-2.46813e-006	0	
-3.474e-006	-2.56986e-006	0	
-3.47205e-006	-2.58033e-006	0	
-3.52696e-006	-2.63516e-006	0	
-3.63621e-006	-2.74454e-006	0	
-3.61475e-006	-2.76445e-006	0	
-3.72665e-006	-2.93322e-006	0	
-3.76812e-006	-3.0713e-006	0	
-3.82166e-006	-3.20633e-006	0	
-3.86528e-006	-3.33802e-006	0	
-3.90496e-006	-3.47002e-006	0	
-3.94043e-006	-3.59914e-006	0	
-3.97012e-006	-3.72662e-006	0	
-3.99409e-006	-3.85205e-006	0	
-4.01271e-006	-3.97513e-006	0	
-4.0253e-006	-4.09535e-006	0	
-4.03131e-006	-4.21313e-006	0	
-4.03095e-006	-4.32853e-006	0	
-4.02478e-006	-4.44164e-006	0	
-4.01344e-006	-4.5535e-006	0	
-3.9976e-006	-4.66334e-006	0	
-3.97822e-006	-4.77084e-006	0	
-3.95601e-006	-4.87659e-006	0	
-3.93105e-006	-4.9799e-006	0	
-3.90349e-006	-5.08046e-006	0	
-3.87368e-006	-5.17913e-006	0	
-3.84197e-006	-5.27548e-006	0	
-3.80823e-006	-5.36867e-006	0	
-3.77263e-006	-5.45946e-006	0	
-3.7357e-006	-5.54835e-006	0	
-3.69799e-006	-5.63464e-006	0	
-3.65949e-006	-5.71835e-006	0	
-3.62015e-006	-5.79959e-006	0	
-3.58038e-006	-5.87783e-006	0	
-3.54073e-006	-5.9534e-006	0	
-3.50112e-006	-6.02647e-006	0	
-3.46143e-006	-6.0963e-006	0	
-3.42161e-006	-6.16266e-006	0	
-3.38155e-006	-6.22588e-006	0	
-3.34122e-006	-6.28606e-006	0	
-3.30025e-006	-6.34294e-006	0	
-3.25832e-006	-6.39596e-006	0	
-3.21503e-006	-6.44466e-006	0	
-3.17018e-006	-6.4893e-006	0	
-3.1229e-006	-6.53046e-006	0	
-3.0728e-006	-6.56793e-006	0	
-3.01945e-006	-6.60114e-006	0	
-2.96194e-006	-6.6301e-006	0	
-2.89945e-006	-6.65487e-006	0	
-2.8316e-006	-6.67572e-006	0	
-2.7577e-006	-6.69243e-006	0	
-2.67606e-006	-6.7044e-006	0	
-2.5867e-006	-6.71222e-006	0	
-2.48977e-006	-6.71645e-006	0	
-2.38334e-006	-6.71669e-006	0	
-2.26589e-006	-6.71288e-006	0	
-2.13796e-006	-6.70539e-006	0	
-1.99964e-006	-6.6943e-006	0	
-1.84918e-006	-6.67994e-006	0	
-1.68591e-006	-6.66285e-006	0	
-1.51022e-006	-6.64272e-006	0	
-1.32183e-006	-6.61942e-006	0	
-1.12041e-006	-6.59367e-006	0	
-9.05203e-007	-6.56619e-006	0	
-6.76315e-007	-6.53706e-006	0	
-4.34874e-007	-6.50589e-006	0	
-1.80391e-007	-6.47352e-006	0	
8.77466e-008	-6.44084e-006	0	
3.6826e-007	-6.40768e-006	0	
6.5987e-007	-6.37408e-006	0	
9.62995e-007	-6.34068e-006	0	
1.27682e-006	-6.30774e-006	0	
1.59967e-006	-6.27543e-006	0	
1.93145e-006	-6.24418e-006	0	
2.27131e-006	-6.21438e-006	0	
2.61743e-006	-6.18627e-006	0	
2.96849e-006	-6.16018e-006	0	
3.32394e-006	-6.13642e-006	0	
3.68187e-006	-6.11487e-006	0	
4.04036e-006	-6.09583e-006	0	
4.39825e-006	-6.07997e-006	0	
4.75395e-006	-6.06753e-006	0	
-1.6237e-018	-3.01618e-018	0	
-2.54983e-007	-1.3605e-007	0	
-5.12522e-007	-2.76635e-007	0	
-7.69845e-007	-4.22546e-007	0	
-1.02263e-006	-5.72798e-007	0	
-1.26654e-006	-7.25402e-007	0	
-1.4982e-006	-8.7811e-007	0	
-1.71558e-006	-1.02884e-006	0	
-1.91807e-006	-1.17594e-006	0	
-2.10622e-006	-1.31842e-006	0	
-2.28109e-006	-1.45597e-006	0	
-2.44376e-006	-1.58866e-006	0	
-2.59523e-006	-1.71687e-006	0	
-2.73598e-006	-1.84123e-006	0	
-2.86572e-006	-1.96213e-006	0	
-2.98447e-006	-2.0796e-006	0	
-3.09275e-006	-2.19361e-006	0	
-3.19226e-006	-2.3043e-006	0	
-3.28317e-006	-2.41307e-006	0	
-3.36729e-006	-2.51831e-006	0	
-3.45205e-006	-2.62838e-006	0	
-3.50731e-006	-2.75267e-006	0	
-3.61788e-006	-2.8932e-006	0	
-3.66358e-006	-2.94241e-006	0	
-3.64877e-006	-2.95274e-006	0	
-3.67595e-006	-2.99957e-006	0	
-3.67188e-006	-3.02527e-006	0	
-3.77071e-006	-3.18134e-006	0	
-3.80383e-006	-3.32175e-006	0	
-3.84878e-006	-3.4605e-006	0	
-3.88343e-006	-3.5957e-006	0	
-3.91398e-006	-3.73103e-006	0	
-3.94003e-006	-3.86274e-006	0	
-3.96026e-006	-3.99182e-006	0	
-3.97478e-006	-4.11772e-006	0	
-3.9826e-006	-4.24056e-006	0	
-3.98271e-006	-4.36022e-006	0	
-3.97635e-006	-4.47793e-006	0	
-3.96509e-006	-4.59426e-006	0	
-3.94966e-006	-4.70855e-006	0	
-3.93096e-006	-4.82067e-006	0	
-3.90961e-006	-4.93067e-006	0	
-3.88566e-006	-5.03795e-006	0	
-3.85906e-006	-5.14253e-006	0	
-3.83001e-006	-5.24454e-006	0	