# vtk DataFile Version 4.1
vtk output
ASCII
DATASET UNSTRUCTURED_GRID

POINTS	30401	float
0	0	0	
0	1	0	
0	2	0	
0	3	0	
0	4	0	
0	5	0	
0	6	0	
0	7	0	
0	8	0	
0	9	0	
0	10	0	
0	11	0	
0	12	0	
0	13	0	
0	14	0	
0	15	0	
0	16	0	
0	17	0	
0	18	0	
0	19	0	
0	20	0	
0	21	0	
0	22	0	
0	23	0	
0	24	0	
0	25	0	
0	26	0	
0	27	0	
0	28	0	
0	29	0	
0	30	0	
0	31	0	
0	32	0	
0	33	0	
0	34	0	
0	35	0	
0	36	0	
0	37	0	
0	38	0	
0	39	0	
0	40	0	
0	41	0	
0	42	0	
0	43	0	
0	44	0	
0	45	0	
0	46	0	
0	47	0	
0	48	0	
0	49	0	
0	50	0	
0	51	0	
0	52	0	
0	53	0	
0	54	0	
0	55	0	
0	56	0	
0	57	0	
0	58	0	
0	59	0	
0	60	0	
0	61	0	
0	62	0	
0	63	0	
0	64	0	
0	65	0	
0	66	0	
0	67	0	
0	68	0	
0	69	0	
0	70	0	
0	71	0	
0	72	0	
0	73	0	
0	74	0	
0	75	0	
0	76	0	
0	77	0	
0	78	0	
0	79	0	
0	80	0	
0	81	0	
0	82	0	
0	83	0	
0	84	0	
0	85	0	
0	86	0	
0	87	0	
0	88	0	
0	89	0	
0	90	0	
0	91	0	
0	92	0	
0	93	0	
0	94	0	
0	95	0	
0	96	0	
0	97	0	
0	98	0	
0	99	0	
0	100	0	
1	0	0	
1	1	0	
1	2	0	
1	3	0	
1	4	0	
1	5	0	
1	6	0	
1	7	0	
1	8	0	
1	9	0	
1	10	0	
1	11	0	
1	12	0	
1	13	0	
1	14	0	
1	15	0	
1	16	0	
1	17	0	
1	18	0	
1	19	0	
1	20	0	
1	21	0	
1	22	0	
1	23	0	
1	24	0	
1	25	0	
1	26	0	
1	27	0	
1	28	0	
1	29	0	
1	30	0	
1	31	0	
1	32	0	
1	33	0	
1	34	0	
1	35	0	
1	36	0	
1	37	0	
1	38	0	
1	39	0	
1	40	0	
1	41	0	
1	42	0	
1	43	0	
1	44	0	
1	45	0	
1	46	0	
1	47	0	
1	48	0	
1	49	0	
1	50	0	
1	51	0	
1	52	0	
1	53	0	
1	54	0	
1	55	0	
1	56	0	
1	57	0	
1	58	0	
1	59	0	
1	60	0	
1	61	0	
1	62	0	
1	63	0	
1	64	0	
1	65	0	
1	66	0	
1	67	0	
1	68	0	
1	69	0	
1	70	0	
1	71	0	
1	72	0	
1	73	0	
1	74	0	
1	75	0	
1	76	0	
1	77	0	
1	78	0	
1	79	0	
1	80	0	
1	81	0	
1	82	0	
1	83	0	
1	84	0	
1	85	0	
1	86	0	
1	87	0	
1	88	0	
1	89	0	
1	90	0	
1	91	0	
1	92	0	
1	93	0	
1	94	0	
1	95	0	
1	96	0	
1	97	0	
1	98	0	
1	99	0	
1	100	0	
2	0	0	
2	1	0	
2	2	0	
2	3	0	
2	4	0	
2	5	0	
2	6	0	
2	7	0	
2	8	0	
2	9	0	
2	10	0	
2	11	0	
2	12	0	
2	13	0	
2	14	0	
2	15	0	
2	16	0	
2	17	0	
2	18	0	
2	19	0	
2	20	0	
2	21	0	
2	22	0	
2	23	0	
2	24	0	
2	25	0	
2	26	0	
2	27	0	
2	28	0	
2	29	0	
2	30	0	
2	31	0	
2	32	0	
2	33	0	
2	34	0	
2	35	0	
2	36	0	
2	37	0	
2	38	0	
2	39	0	
2	40	0	
2	41	0	
2	42	0	
2	43	0	
2	44	0	
2	45	0	
2	46	0	
2	47	0	
2	48	0	
2	49	0	
2	50	0	
2	51	0	
2	52	0	
2	53	0	
2	54	0	
2	55	0	
2	56	0	
2	57	0	
2	58	0	
2	59	0	
2	60	0	
2	61	0	
2	62	0	
2	63	0	
2	64	0	
2	65	0	
2	66	0	
2	67	0	
2	68	0	
2	69	0	
2	70	0	
2	71	0	
2	72	0	
2	73	0	
2	74	0	
2	75	0	
2	76	0	
2	77	0	
2	78	0	
2	79	0	
2	80	0	
2	81	0	
2	82	0	
2	83	0	
2	84	0	
2	85	0	
2	86	0	
2	87	0	
2	88	0	
2	89	0	
2	90	0	
2	91	0	
2	92	0	
2	93	0	
2	94	0	
2	95	0	
2	96	0	
2	97	0	
2	98	0	
2	99	0	
2	100	0	
3	0	0	
3	1	0	
3	2	0	
3	3	0	
3	4	0	
3	5	0	
3	6	0	
3	7	0	
3	8	0	
3	9	0	
3	10	0	
3	11	0	
3	12	0	
3	13	0	
3	14	0	
3	15	0	
3	16	0	
3	17	0	
3	18	0	
3	19	0	
3	20	0	
3	21	0	
3	22	0	
3	23	0	
3	24	0	
3	25	0	
3	26	0	
3	27	0	
3	28	0	
3	29	0	
3	30	0	
3	31	0	
3	32	0	
3	33	0	
3	34	0	
3	35	0	
3	36	0	
3	37	0	
3	38	0	
3	39	0	
3	40	0	
3	41	0	
3	42	0	
3	43	0	
3	44	0	
3	45	0	
3	46	0	
3	47	0	
3	48	0	
3	49	0	
3	50	0	
3	51	0	
3	52	0	
3	53	0	
3	54	0	
3	55	0	
3	56	0	
3	57	0	
3	58	0	
3	59	0	
3	60	0	
3	61	0	
3	62	0	
3	63	0	
3	64	0	
3	65	0	
3	66	0	
3	67	0	
3	68	0	
3	69	0	
3	70	0	
3	71	0	
3	72	0	
3	73	0	
3	74	0	
3	75	0	
3	76	0	
3	77	0	
3	78	0	
3	79	0	
3	80	0	
3	81	0	
3	82	0	
3	83	0	
3	84	0	
3	85	0	
3	86	0	
3	87	0	
3	88	0	
3	89	0	
3	90	0	
3	91	0	
3	92	0	
3	93	0	
3	94	0	
3	95	0	
3	96	0	
3	97	0	
3	98	0	
3	99	0	
3	100	0	
4	0	0	
4	1	0	
4	2	0	
4	3	0	
4	4	0	
4	5	0	
4	6	0	
4	7	0	
4	8	0	
4	9	0	
4	10	0	
4	11	0	
4	12	0	
4	13	0	
4	14	0	
4	15	0	
4	16	0	
4	17	0	
4	18	0	
4	19	0	
4	20	0	
4	21	0	
4	22	0	
4	23	0	
4	24	0	
4	25	0	
4	26	0	
4	27	0	
4	28	0	
4	29	0	
4	30	0	
4	31	0	
4	32	0	
4	33	0	
4	34	0	
4	35	0	
4	36	0	
4	37	0	
4	38	0	
4	39	0	
4	40	0	
4	41	0	
4	42	0	
4	43	0	
4	44	0	
4	45	0	
4	46	0	
4	47	0	
4	48	0	
4	49	0	
4	50	0	
4	51	0	
4	52	0	
4	53	0	
4	54	0	
4	55	0	
4	56	0	
4	57	0	
4	58	0	
4	59	0	
4	60	0	
4	61	0	
4	62	0	
4	63	0	
4	64	0	
4	65	0	
4	66	0	
4	67	0	
4	68	0	
4	69	0	
4	70	0	
4	71	0	
4	72	0	
4	73	0	
4	74	0	
4	75	0	
4	76	0	
4	77	0	
4	78	0	
4	79	0	
4	80	0	
4	81	0	
4	82	0	
4	83	0	
4	84	0	
4	85	0	
4	86	0	
4	87	0	
4	88	0	
4	89	0	
4	90	0	
4	91	0	
4	92	0	
4	93	0	
4	94	0	
4	95	0	
4	96	0	
4	97	0	
4	98	0	
4	99	0	
4	100	0	
5	0	0	
5	1	0	
5	2	0	
5	3	0	
5	4	0	
5	5	0	
5	6	0	
5	7	0	
5	8	0	
5	9	0	
5	10	0	
5	11	0	
5	12	0	
5	13	0	
5	14	0	
5	15	0	
5	16	0	
5	17	0	
5	18	0	
5	19	0	
5	20	0	
5	21	0	
5	22	0	
5	23	0	
5	24	0	
5	25	0	
5	26	0	
5	27	0	
5	28	0	
5	29	0	
5	30	0	
5	31	0	
5	32	0	
5	33	0	
5	34	0	
5	35	0	
5	36	0	
5	37	0	
5	38	0	
5	39	0	
5	40	0	
5	41	0	
5	42	0	
5	43	0	
5	44	0	
5	45	0	
5	46	0	
5	47	0	
5	48	0	
5	49	0	
5	50	0	
5	51	0	
5	52	0	
5	53	0	
5	54	0	
5	55	0	
5	56	0	
5	57	0	
5	58	0	
5	59	0	
5	60	0	
5	61	0	
5	62	0	
5	63	0	
5	64	0	
5	65	0	
5	66	0	
5	67	0	
5	68	0	
5	69	0	
5	70	0	
5	71	0	
5	72	0	
5	73	0	
5	74	0	
5	75	0	
5	76	0	
5	77	0	
5	78	0	
5	79	0	
5	80	0	
5	81	0	
5	82	0	
5	83	0	
5	84	0	
5	85	0	
5	86	0	
5	87	0	
5	88	0	
5	89	0	
5	90	0	
5	91	0	
5	92	0	
5	93	0	
5	94	0	
5	95	0	
5	96	0	
5	97	0	
5	98	0	
5	99	0	
5	100	0	
6	0	0	
6	1	0	
6	2	0	
6	3	0	
6	4	0	
6	5	0	
6	6	0	
6	7	0	
6	8	0	
6	9	0	
6	10	0	
6	11	0	
6	12	0	
6	13	0	
6	14	0	
6	15	0	
6	16	0	
6	17	0	
6	18	0	
6	19	0	
6	20	0	
6	21	0	
6	22	0	
6	23	0	
6	24	0	
6	25	0	
6	26	0	
6	27	0	
6	28	0	
6	29	0	
6	30	0	
6	31	0	
6	32	0	
6	33	0	
6	34	0	
6	35	0	
6	36	0	
6	37	0	
6	38	0	
6	39	0	
6	40	0	
6	41	0	
6	42	0	
6	43	0	
6	44	0	
6	45	0	
6	46	0	
6	47	0	
6	48	0	
6	49	0	
6	50	0	
6	51	0	
6	52	0	
6	53	0	
6	54	0	
6	55	0	
6	56	0	
6	57	0	
6	58	0	
6	59	0	
6	60	0	
6	61	0	
6	62	0	
6	63	0	
6	64	0	
6	65	0	
6	66	0	
6	67	0	
6	68	0	
6	69	0	
6	70	0	
6	71	0	
6	72	0	
6	73	0	
6	74	0	
6	75	0	
6	76	0	
6	77	0	
6	78	0	
6	79	0	
6	80	0	
6	81	0	
6	82	0	
6	83	0	
6	84	0	
6	85	0	
6	86	0	
6	87	0	
6	88	0	
6	89	0	
6	90	0	
6	91	0	
6	92	0	
6	93	0	
6	94	0	
6	95	0	
6	96	0	
6	97	0	
6	98	0	
6	99	0	
6	100	0	
7	0	0	
7	1	0	
7	2	0	
7	3	0	
7	4	0	
7	5	0	
7	6	0	
7	7	0	
7	8	0	
7	9	0	
7	10	0	
7	11	0	
7	12	0	
7	13	0	
7	14	0	
7	15	0	
7	16	0	
7	17	0	
7	18	0	
7	19	0	
7	20	0	
7	21	0	
7	22	0	
7	23	0	
7	24	0	
7	25	0	
7	26	0	
7	27	0	
7	28	0	
7	29	0	
7	30	0	
7	31	0	
7	32	0	
7	33	0	
7	34	0	
7	35	0	
7	36	0	
7	37	0	
7	38	0	
7	39	0	
7	40	0	
7	41	0	
7	42	0	
7	43	0	
7	44	0	
7	45	0	
7	46	0	
7	47	0	
7	48	0	
7	49	0	
7	50	0	
7	51	0	
7	52	0	
7	53	0	
7	54	0	
7	55	0	
7	56	0	
7	57	0	
7	58	0	
7	59	0	
7	60	0	
7	61	0	
7	62	0	
7	63	0	
7	64	0	
7	65	0	
7	66	0	
7	67	0	
7	68	0	
7	69	0	
7	70	0	
7	71	0	
7	72	0	
7	73	0	
7	74	0	
7	75	0	
7	76	0	
7	77	0	
7	78	0	
7	79	0	
7	80	0	
7	81	0	
7	82	0	
7	83	0	
7	84	0	
7	85	0	
7	86	0	
7	87	0	
7	88	0	
7	89	0	
7	90	0	
7	91	0	
7	92	0	
7	93	0	
7	94	0	
7	95	0	
7	96	0	
7	97	0	
7	98	0	
7	99	0	
7	100	0	
8	0	0	
8	1	0	
8	2	0	
8	3	0	
8	4	0	
8	5	0	
8	6	0	
8	7	0	
8	8	0	
8	9	0	
8	10	0	
8	11	0	
8	12	0	
8	13	0	
8	14	0	
8	15	0	
8	16	0	
8	17	0	
8	18	0	
8	19	0	
8	20	0	
8	21	0	
8	22	0	
8	23	0	
8	24	0	
8	25	0	
8	26	0	
8	27	0	
8	28	0	
8	29	0	
8	30	0	
8	31	0	
8	32	0	
8	33	0	
8	34	0	
8	35	0	
8	36	0	
8	37	0	
8	38	0	
8	39	0	
8	40	0	
8	41	0	
8	42	0	
8	43	0	
8	44	0	
8	45	0	
8	46	0	
8	47	0	
8	48	0	
8	49	0	
8	50	0	
8	51	0	
8	52	0	
8	53	0	
8	54	0	
8	55	0	
8	56	0	
8	57	0	
8	58	0	
8	59	0	
8	60	0	
8	61	0	
8	62	0	
8	63	0	
8	64	0	
8	65	0	
8	66	0	
8	67	0	
8	68	0	
8	69	0	
8	70	0	
8	71	0	
8	72	0	
8	73	0	
8	74	0	
8	75	0	
8	76	0	
8	77	0	
8	78	0	
8	79	0	
8	80	0	
8	81	0	
8	82	0	
8	83	0	
8	84	0	
8	85	0	
8	86	0	
8	87	0	
8	88	0	
8	89	0	
8	90	0	
8	91	0	
8	92	0	
8	93	0	
8	94	0	
8	95	0	
8	96	0	
8	97	0	
8	98	0	
8	99	0	
8	100	0	
9	0	0	
9	1	0	
9	2	0	
9	3	0	
9	4	0	
9	5	0	
9	6	0	
9	7	0	
9	8	0	
9	9	0	
9	10	0	
9	11	0	
9	12	0	
9	13	0	
9	14	0	
9	15	0	
9	16	0	
9	17	0	
9	18	0	
9	19	0	
9	20	0	
9	21	0	
9	22	0	
9	23	0	
9	24	0	
9	25	0	
9	26	0	
9	27	0	
9	28	0	
9	29	0	
9	30	0	
9	31	0	
9	32	0	
9	33	0	
9	34	0	
9	35	0	
9	36	0	
9	37	0	
9	38	0	
9	39	0	
9	40	0	
9	41	0	
9	42	0	
9	43	0	
9	44	0	
9	45	0	
9	46	0	
9	47	0	
9	48	0	
9	49	0	
9	50	0	
9	51	0	
9	52	0	
9	53	0	
9	54	0	
9	55	0	
9	56	0	
9	57	0	
9	58	0	
9	59	0	
9	60	0	
9	61	0	
9	62	0	
9	63	0	
9	64	0	
9	65	0	
9	66	0	
9	67	0	
9	68	0	
9	69	0	
9	70	0	
9	71	0	
9	72	0	
9	73	0	
9	74	0	
9	75	0	
9	76	0	
9	77	0	
9	78	0	
9	79	0	
9	80	0	
9	81	0	
9	82	0	
9	83	0	
9	84	0	
9	85	0	
9	86	0	
9	87	0	
9	88	0	
9	89	0	
9	90	0	
9	91	0	
9	92	0	
9	93	0	
9	94	0	
9	95	0	
9	96	0	
9	97	0	
9	98	0	
9	99	0	
9	100	0	
10	0	0	
10	1	0	
10	2	0	
10	3	0	
10	4	0	
10	5	0	
10	6	0	
10	7	0	
10	8	0	
10	9	0	
10	10	0	
10	11	0	
10	12	0	
10	13	0	
10	14	0	
10	15	0	
10	16	0	
10	17	0	
10	18	0	
10	19	0	
10	20	0	
10	21	0	
10	22	0	
10	23	0	
10	24	0	
10	25	0	
10	26	0	
10	27	0	
10	28	0	
10	29	0	
10	30	0	
10	31	0	
10	32	0	
10	33	0	
10	34	0	
10	35	0	
10	36	0	
10	37	0	
10	38	0	
10	39	0	
10	40	0	
10	41	0	
10	42	0	
10	43	0	
10	44	0	
10	45	0	
10	46	0	
10	47	0	
10	48	0	
10	49	0	
10	50	0	
10	51	0	
10	52	0	
10	53	0	
10	54	0	
10	55	0	
10	56	0	
10	57	0	
10	58	0	
10	59	0	
10	60	0	
10	61	0	
10	62	0	
10	63	0	
10	64	0	
10	65	0	
10	66	0	
10	67	0	
10	68	0	
10	69	0	
10	70	0	
10	71	0	
10	72	0	
10	73	0	
10	74	0	
10	75	0	
10	76	0	
10	77	0	
10	78	0	
10	79	0	
10	80	0	
10	81	0	
10	82	0	
10	83	0	
10	84	0	
10	85	0	
10	86	0	
10	87	0	
10	88	0	
10	89	0	
10	90	0	
10	91	0	
10	92	0	
10	93	0	
10	94	0	
10	95	0	
10	96	0	
10	97	0	
10	98	0	
10	99	0	
10	100	0	
11	0	0	
11	1	0	
11	2	0	
11	3	0	
11	4	0	
11	5	0	
11	6	0	
11	7	0	
11	8	0	
11	9	0	
11	10	0	
11	11	0	
11	12	0	
11	13	0	
11	14	0	
11	15	0	
11	16	0	
11	17	0	
11	18	0	
11	19	0	
11	20	0	
11	21	0	
11	22	0	
11	23	0	
11	24	0	
11	25	0	
11	26	0	
11	27	0	
11	28	0	
11	29	0	
11	30	0	
11	31	0	
11	32	0	
11	33	0	
11	34	0	
11	35	0	
11	36	0	
11	37	0	
11	38	0	
11	39	0	
11	40	0	
11	41	0	
11	42	0	
11	43	0	
11	44	0	
11	45	0	
11	46	0	
11	47	0	
11	48	0	
11	49	0	
11	50	0	
11	51	0	
11	52	0	
11	53	0	
11	54	0	
11	55	0	
11	56	0	
11	57	0	
11	58	0	
11	59	0	
11	60	0	
11	61	0	
11	62	0	
11	63	0	
11	64	0	
11	65	0	
11	66	0	
11	67	0	
11	68	0	
11	69	0	
11	70	0	
11	71	0	
11	72	0	
11	73	0	
11	74	0	
11	75	0	
11	76	0	
11	77	0	
11	78	0	
11	79	0	
11	80	0	
11	81	0	
11	82	0	
11	83	0	
11	84	0	
11	85	0	
11	86	0	
11	87	0	
11	88	0	
11	89	0	
11	90	0	
11	91	0	
11	92	0	
11	93	0	
11	94	0	
11	95	0	
11	96	0	
11	97	0	
11	98	0	
11	99	0	
11	100	0	
12	0	0	
12	1	0	
12	2	0	
12	3	0	
12	4	0	
12	5	0	
12	6	0	
12	7	0	
12	8	0	
12	9	0	
12	10	0	
12	11	0	
12	12	0	
12	13	0	
[...]
POINT_DATA	30401
VECTORS d float
-1.32867e-017	-2.39313e-017	0	
-7.38293e-007	-7.19713e-007	0	
-1.2981e-006	-1.10856e-006	0	
-1.79024e-006	-1.37163e-006	0	
-2.20883e-006	-1.5312e-006	0	
-2.53422e-006	-1.60102e-006	0	
-2.76712e-006	-1.61968e-006	0	
-3.06759e-006	-1.70286e-006	0	
-3.31389e-006	-1.76022e-006	0	
-3.82443e-006	-2.16251e-006	0	
-4.18712e-006	-2.62063e-006	0	
-4.55409e-006	-3.1836e-006	0	
-5.12116e-006	-3.84817e-006	0	
-5.72069e-006	-4.53786e-006	0	
-6.16028e-006	-5.11596e-006	0	
-6.08742e-006	-5.57811e-006	0	
-5.56431e-006	-6.26201e-006	0	
-5.55815e-006	-7.03805e-006	0	
-5.9641e-006	-7.45402e-006	0	
-6.38803e-006	-7.60926e-006	0	
-6.71958e-006	-7.66994e-006	0	
-7.05399e-006	-7.67382e-006	0	
-7.3114e-006	-7.70506e-006	0	
-7.56753e-006	-7.71671e-006	0	
-7.78184e-006	-7.74547e-006	0	
-7.95314e-006	-7.80749e-006	0	
-8.10205e-006	-7.90235e-006	0	
-8.24228e-006	-8.01505e-006	0	
-8.37748e-006	-8.13448e-006	0	
-8.50628e-006	-8.2529e-006	0	
-8.62478e-006	-8.36597e-006	0	
-8.72857e-006	-8.47226e-006	0	
-8.81412e-006	-8.57245e-006	0	
-8.87958e-006	-8.66844e-006	0	
-8.925e-006	-8.76239e-006	0	
-8.95196e-006	-8.85597e-006	0	
-8.96306e-006	-8.94998e-006	0	
-8.96113e-006	-9.04416e-006	0	
-8.94865e-006	-9.13728e-006	0	
-8.92748e-006	-9.22745e-006	0	
-8.8985e-006	-9.31209e-006	0	
-8.86144e-006	-9.38801e-006	0	
-8.81446e-006	-9.45125e-006	0	
-8.75312e-006	-9.49759e-006	0	
-8.67042e-006	-9.52804e-006	0	
-8.56567e-006	-9.54919e-006	0	
-8.47247e-006	-9.58447e-006	0	
-8.38535e-006	-9.6317e-006	0	
-8.28504e-006	-9.67263e-006	0	
-8.23161e-006	-9.76789e-006	0	
-8.14736e-006	-9.8713e-006	0	
-8.0429e-006	-9.96737e-006	0	
-7.9458e-006	-1.00546e-005	0	
-7.83241e-006	-1.01332e-005	0	
-7.70852e-006	-1.02122e-005	0	
-7.57941e-006	-1.02906e-005	0	
-7.44159e-006	-1.03606e-005	0	
-7.29257e-006	-1.04313e-005	0	
-7.13131e-006	-1.0504e-005	0	
-6.96423e-006	-1.05722e-005	0	
-6.78888e-006	-1.06393e-005	0	
-6.6046e-006	-1.07072e-005	0	
-6.41479e-006	-1.0772e-005	0	
-6.2191e-006	-1.0838e-005	0	
-6.01525e-006	-1.09062e-005	0	
-5.80924e-006	-1.09707e-005	0	
-5.59895e-006	-1.10363e-005	0	
-5.38179e-006	-1.10985e-005	0	
-5.164e-006	-1.11574e-005	0	
-4.94113e-006	-1.12169e-005	0	
-4.71585e-006	-1.12717e-005	0	
-4.48713e-006	-1.13237e-005	0	
-4.25259e-006	-1.13733e-005	0	
-4.01626e-006	-1.14171e-005	0	
-3.77672e-006	-1.14555e-005	0	
-3.53352e-006	-1.14904e-005	0	
-3.2811e-006	-1.15194e-005	0	
-3.0271e-006	-1.15445e-005	0	
-2.76976e-006	-1.15661e-005	0	
-2.50234e-006	-1.15806e-005	0	
-2.2314e-006	-1.15924e-005	0	
-1.95292e-006	-1.15984e-005	0	
-1.66957e-006	-1.15999e-005	0	
-1.37718e-006	-1.15974e-005	0	
-1.0765e-006	-1.15905e-005	0	
-7.71886e-007	-1.15845e-005	0	
-4.58495e-007	-1.15722e-005	0	
-1.37945e-007	-1.15594e-005	0	
1.89772e-007	-1.15461e-005	0	
5.26095e-007	-1.15267e-005	0	
8.6748e-007	-1.15115e-005	0	
1.21605e-006	-1.14962e-005	0	
1.56902e-006	-1.14814e-005	0	
1.92763e-006	-1.14688e-005	0	
2.29185e-006	-1.14555e-005	0	
2.65713e-006	-1.14447e-005	0	
3.02514e-006	-1.1436e-005	0	
3.39426e-006	-1.14311e-005	0	
3.7632e-006	-1.14295e-005	0	
4.13359e-006	-1.14286e-005	0	
4.50268e-006	-1.1427e-005	0	
-4.21117e-018	-7.56246e-018	0	
-5.8171e-007	-3.76328e-007	0	
-1.16107e-006	-7.27273e-007	0	
-1.68685e-006	-1.02922e-006	0	
-2.1404e-006	-1.26568e-006	0	
-2.49933e-006	-1.4668e-006	0	
-2.83904e-006	-1.69892e-006	0	
-3.19367e-006	-1.87105e-006	0	
-3.37749e-006	-1.89138e-006	0	
-3.66679e-006	-1.99709e-006	0	
-4.03238e-006	-2.20463e-006	0	
-4.24307e-006	-2.28207e-006	0	
-4.82315e-006	-3.15133e-006	0	
-5.35741e-006	-4.0002e-006	0	
-5.87281e-006	-4.91414e-006	0	
-5.77677e-006	-5.82191e-006	0	
-5.13569e-006	-6.76574e-006	0	
-5.38593e-006	-7.02708e-006	0	
-5.90271e-006	-7.19549e-006	0	
-6.35454e-006	-7.20819e-006	0	
-6.72643e-006	-7.23231e-006	0	
-7.08484e-006	-7.23592e-006	0	
-7.33859e-006	-7.29791e-006	0	
-7.55207e-006	-7.41044e-006	0	
-7.75084e-006	-7.5103e-006	0	
-7.90983e-006	-7.6187e-006	0	
-8.05144e-006	-7.74035e-006	0	
-8.18821e-006	-7.8701e-006	0	
-8.32304e-006	-8.00268e-006	0	
-8.45344e-006	-8.13395e-006	0	
-8.57448e-006	-8.26133e-006	0	
-8.68086e-006	-8.38387e-006	0	
-8.76848e-006	-8.50179e-006	0	
-8.83526e-006	-8.61605e-006	0	
-8.88129e-006	-8.7278e-006	0	
-8.90844e-006	-8.83791e-006	0	
-8.91967e-006	-8.94671e-006	0	
-8.91815e-006	-9.05391e-006	0	
-8.90669e-006	-9.15867e-006	0	
-8.88732e-006	-9.25971e-006	0	
-8.86105e-006	-9.3556e-006	0	
-8.82769e-006	-9.44491e-006	0	
-8.78531e-006	-9.52663e-006	0	
-8.72921e-006	-9.60204e-006	0	
-8.65476e-006	-9.68e-006	0	
-8.57937e-006	-9.7717e-006	0	
-8.51041e-006	-9.84832e-006	0	
-8.41204e-006	-9.88862e-006	0	
-8.28909e-006	-9.91245e-006	0	
-8.19244e-006	-9.96013e-006	0	
-8.09352e-006	-1.00138e-005	0	
-7.98882e-006	-1.00683e-005	0	
-7.91308e-006	-1.01679e-005	0	
-7.79629e-006	-1.02609e-005	0	
-7.67649e-006	-1.03487e-005	0	
-7.54806e-006	-1.04296e-005	0	
-7.40814e-006	-1.05103e-005	0	
-7.25938e-006	-1.05902e-005	0	
-7.09935e-006	-1.06688e-005	0	
-6.93388e-006	-1.07448e-005	0	
-6.75771e-006	-1.082e-005	0	
-6.57295e-006	-1.08945e-005	0	
-6.38424e-006	-1.09659e-005	0	
-6.18853e-006	-1.10391e-005	0	
-5.9858e-006	-1.11124e-005	0	
-5.78024e-006	-1.11824e-005	0	
-5.57025e-006	-1.12518e-005	0	
-5.35446e-006	-1.13187e-005	0	
-5.13785e-006	-1.13828e-005	0	
-4.91585e-006	-1.14451e-005	0	
-4.69136e-006	-1.15041e-005	0	
-4.46439e-006	-1.15609e-005	0	
-4.23228e-006	-1.1613e-005	0	
-3.99756e-006	-1.16594e-005	0	
-3.75956e-006	-1.1703e-005	0	
-3.51809e-006	-1.17429e-005	0	
-3.26868e-006	-1.17778e-005	0	
-3.01648e-006	-1.18077e-005	0	
-2.76054e-006	-1.18333e-005	0	
-2.49497e-006	-1.18548e-005	0	
-2.22646e-006	-1.18715e-005	0	
-1.95036e-006	-1.18835e-005	0	
-1.66703e-006	-1.18921e-005	0	
-1.3769e-006	-1.18973e-005	0	
-1.0787e-006	-1.18981e-005	0	
-7.74707e-007	-1.18962e-005	0	
-4.61651e-007	-1.18924e-005	0	
-1.41171e-007	-1.18858e-005	0	
1.84804e-007	-1.18778e-005	0	
5.20253e-007	-1.18679e-005	0	
8.62127e-007	-1.18562e-005	0	
1.21029e-006	-1.18461e-005	0	
1.56362e-006	-1.18372e-005	0	
1.92239e-006	-1.18284e-005	0	
2.28632e-006	-1.18183e-005	0	
2.65201e-006	-1.18096e-005	0	
3.02188e-006	-1.18046e-005	0	
3.39322e-006	-1.17998e-005	0	
3.763e-006	-1.17974e-005	0	
4.13279e-006	-1.17967e-005	0	
4.50042e-006	-1.17959e-005	0	
-2.89556e-018	-5.78123e-018	0	
-5.06571e-007	-2.71822e-007	0	
-1.05642e-006	-5.65702e-007	0	
-1.5778e-006	-8.55701e-007	0	
-2.04096e-006	-1.12626e-006	0	
-2.43769e-006	-1.37168e-006	0	
-2.80554e-006	-1.59389e-006	0	
-3.15463e-006	-1.81336e-006	0	
-3.45937e-006	-2.04757e-006	0	
-3.81876e-006	-2.25332e-006	0	
-3.97454e-006	-2.27585e-006	0	
-4.23707e-006	-2.38271e-006	0	
-4.49182e-006	-2.49023e-006	0	
-4.72533e-006	-2.63622e-006	0	
-5.43462e-006	-4.38023e-006	0	
-5.34869e-006	-5.97314e-006	0	
-4.88444e-006	-6.58847e-006	0	
-5.33398e-006	-6.6443e-006	0	
-5.90547e-006	-6.63472e-006	0	
-6.39245e-006	-6.63537e-006	0	
-6.74581e-006	-6.72532e-006	0	
-7.06522e-006	-6.84179e-006	0	
-7.31412e-006	-6.96091e-006	0	
-7.51483e-006	-7.09216e-006	0	
-7.69083e-006	-7.23825e-006	0	
-7.84194e-006	-7.39545e-006	0	
-7.98161e-006	-7.5561e-006	0	
-8.11951e-006	-7.71592e-006	0	
-8.25745e-006	-7.87214e-006	0	
-8.39191e-006	-8.02295e-006	0	
-8.51703e-006	-8.16764e-006	0	
-8.62685e-006	-8.3064e-006	0	
-8.71684e-006	-8.44019e-006	0	
-8.78485e-006	-8.57029e-006	0	
-8.83124e-006	-8.69794e-006	0	
-8.8583e-006	-8.82385e-006	0	
-8.86946e-006	-8.94817e-006	0	
-8.86826e-006	-9.07045e-006	0	
-8.85769e-006	-9.18991e-006	0	
-8.83976e-006	-9.30566e-006	0	
-8.81531e-006	-9.417e-006	0	
-8.78384e-006	-9.52372e-006	0	
-8.7432e-006	-9.62629e-006	0	
-8.69009e-006	-9.72548e-006	0	
-8.62447e-006	-9.82055e-006	0	
-8.5558e-006	-9.9104e-006	0	
-8.48569e-006	-9.99812e-006	0	
-8.40088e-006	-1.00919e-005	0	
-8.32317e-006	-1.01952e-005	0	
-8.24156e-006	-1.02661e-005	0	
-8.11958e-006	-1.02983e-005	0	
-7.98346e-006	-1.03232e-005	0	
-7.86921e-006	-1.03706e-005	0	
-7.74211e-006	-1.04176e-005	0	
-7.63489e-006	-1.04871e-005	0	
-7.51748e-006	-1.05831e-005	0	
-7.37253e-006	-1.0671e-005	0	
-7.22486e-006	-1.07556e-005	0	
-7.06677e-006	-1.08385e-005	0	
-6.90022e-006	-1.09202e-005	0	
-6.7249e-006	-1.10021e-005	0	
-6.54088e-006	-1.1084e-005	0	
-6.3523e-006	-1.11641e-005	0	
-6.1565e-006	-1.12435e-005	0	
-5.95417e-006	-1.1322e-005	0	
-5.74931e-006	-1.13974e-005	0	
-5.5393e-006	-1.14715e-005	0	
-5.32385e-006	-1.1544e-005	0	
-5.10837e-006	-1.1614e-005	0	
-4.8888e-006	-1.16805e-005	0	
-4.66498e-006	-1.1744e-005	0	
-4.44011e-006	-1.18059e-005	0	
-4.21159e-006	-1.18619e-005	0	
-3.97833e-006	-1.19131e-005	0	
-3.74092e-006	-1.19624e-005	0	
-3.50024e-006	-1.20068e-005	0	
-3.25505e-006	-1.2047e-005	0	
-3.00556e-006	-1.20824e-005	0	
-2.74916e-006	-1.21125e-005	0	
-2.48663e-006	-1.21399e-005	0	
-2.22076e-006	-1.21622e-005	0	
-1.94558e-006	-1.21795e-005	0	
-1.66231e-006	-1.21941e-005	0	
-1.37444e-006	-1.22057e-005	0	
-1.07936e-006	-1.22133e-005	0	
-7.76184e-007	-1.22171e-005	0	
-4.63647e-007	-1.22185e-005	0	
-1.4411e-007	-1.22177e-005	0	
1.8182e-007	-1.22149e-005	0	
5.16032e-007	-1.22109e-005	0	
8.57079e-007	-1.22047e-005	0	
1.20521e-006	-1.21984e-005	0	
1.55875e-006	-1.21916e-005	0	
1.91821e-006	-1.21853e-005	0	
2.28244e-006	-1.21794e-005	0	
2.64898e-006	-1.21742e-005	0	
3.01976e-006	-1.21707e-005	0	
3.39152e-006	-1.21662e-005	0	
3.76177e-006	-1.21639e-005	0	
4.13239e-006	-1.21618e-005	0	
4.50163e-006	-1.21594e-005	0	
-2.84781e-018	-5.25374e-018	0	
-4.76319e-007	-2.41847e-007	0	
-9.85484e-007	-5.01612e-007	0	
-1.48542e-006	-7.7091e-007	0	
-1.94662e-006	-1.03862e-006	0	
-2.36133e-006	-1.29418e-006	0	
-2.74238e-006	-1.53426e-006	0	
-3.09763e-006	-1.76393e-006	0	
-3.43533e-006	-1.98226e-006	0	
-3.77255e-006	-2.20752e-006	0	
-4.03942e-006	-2.45132e-006	0	
-4.41048e-006	-2.72643e-006	0	
-4.64993e-006	-2.82221e-006	0	
-4.77515e-006	-2.84523e-006	0	
-4.97492e-006	-2.93721e-006	0	
-5.22521e-006	-3.40452e-006	0	
-4.87929e-006	-6.04312e-006	0	
-5.29635e-006	-6.01005e-006	0	
-5.91976e-006	-6.0186e-006	0	
-6.37643e-006	-6.09687e-006	0	
-6.72021e-006	-6.24253e-006	0	
-7.01955e-006	-6.4118e-006	0	
-7.26229e-006	-6.58847e-006	0	
-7.44911e-006	-6.77207e-006	0	
-7.60429e-006	-6.96722e-006	0	
-7.74614e-006	-7.1694e-006	0	
-7.88636e-006	-7.36978e-006	0	
-8.03016e-006	-7.56277e-006	0	
-8.17623e-006	-7.74608e-006	0	
-8.31917e-006	-7.91919e-006	0	
-8.45183e-006	-8.08265e-006	0	
-8.56731e-006	-8.23789e-006	0	
-8.66062e-006	-8.38693e-006	0	
-8.72971e-006	-8.53204e-006	0	
-8.77554e-006	-8.67503e-006	0	
-8.80136e-006	-8.81686e-006	0	
-8.81142e-006	-8.9575e-006	0	
-8.80979e-006	-9.09625e-006	0	
-8.79964e-006	-9.23209e-006	0	
-8.78282e-006	-9.3641e-006	0	
-8.75981e-006	-9.49174e-006	0	
-8.72985e-006	-9.61493e-006	0	
-8.69119e-006	-9.73383e-006	0	
-8.64217e-006	-9.84813e-006	0	
-8.58384e-006	-9.95676e-006	0	
-8.51988e-006	-1.00601e-005	0	
-8.45065e-006	-1.01606e-005	0	
-8.37478e-006	-1.02575e-005	0	
-8.29956e-006	-1.03489e-005	0	
-8.21805e-006	-1.04377e-005	0	
-8.11608e-006	-1.05322e-005	0	
-8.02564e-006	-1.0632e-005	0	
-7.91499e-006	-1.06875e-005	0	
-7.7586e-006	-1.07088e-005	0	
-7.61163e-006	-1.07422e-005	0	
-7.47194e-006	-1.07891e-005	0	
-7.31918e-006	-1.08357e-005	0	
-7.19425e-006	-1.09239e-005	0	
-7.03384e-006	-1.10152e-005	0	
-6.86415e-006	-1.11057e-005	0	
-6.69099e-006	-1.11912e-005	0	
-6.50689e-006	-1.12782e-005	0	
-6.31774e-006	-1.13647e-005	0	
-6.12121e-006	-1.14494e-005	0	
-5.91949e-006	-1.15338e-005	0	
-5.715e-006	-1.16164e-005	0	
-5.50526e-006	-1.16968e-005	0	
-5.29054e-006	-1.17746e-005	0	
-5.07619e-006	-1.18506e-005	0	
-4.85944e-006	-1.19231e-005	0	
-4.63664e-006	-1.19922e-005	0	
-4.41221e-006	-1.20593e-005	0	
-4.18647e-006	-1.21211e-005	0	
-3.95581e-006	-1.21793e-005	0	
-3.71994e-006	-1.22338e-005	0	
-3.4809e-006	-1.22822e-005	0	
-3.23855e-006	-1.23275e-005	0	
-2.9905e-006	-1.23685e-005	0	
-2.73537e-006	-1.24045e-005	0	
-2.47637e-006	-1.24376e-005	0	
-2.21202e-006	-1.24653e-005	0	
-1.93763e-006	-1.24887e-005	0	
-1.65731e-006	-1.25087e-005	0	
-1.37154e-006	-1.25227e-005	0	
-1.07694e-006	-1.25357e-005	0	
-7.75148e-007	-1.25462e-005	0	
-4.65139e-007	-1.25523e-005	0	
-1.46637e-007	-1.25562e-005	0	
1.79653e-007	-1.25576e-005	0	
5.12873e-007	-1.25568e-005	0	
8.53048e-007	-1.25559e-005	0	
1.20081e-006	-1.25533e-005	0	
1.55415e-006	-1.25484e-005	0	
1.91399e-006	-1.25443e-005	0	
2.27869e-006	-1.25409e-005	0	
2.64639e-006	-1.25369e-005	0	
3.01762e-006	-1.25337e-005	0	
3.38903e-006	-1.25306e-005	0	
3.75998e-006	-1.25295e-005	0	
4.13255e-006	-1.25288e-005	0	
4.50184e-006	-1.25275e-005	0	
-2.67626e-018	-4.92433e-018	0	
-4.48925e-007	-2.30821e-007	0	
-9.33148e-007	-4.75709e-007	0	
-1.41477e-006	-7.29002e-007	0	
-1.86841e-006	-9.86899e-007	0	
-2.28719e-006	-1.24216e-006	0	
-2.67485e-006	-1.48963e-006	0	
-3.03767e-006	-1.72825e-006	0	
-3.38212e-006	-1.95928e-006	0	
-3.70873e-006	-2.18753e-006	0	
-4.01834e-006	-2.40634e-006	0	
-4.34896e-006	-2.62104e-006	0	
-4.61776e-006	-2.82791e-006	0	
-4.85742e-006	-3.04297e-006	0	
-5.0983e-006	-3.19491e-006	0	
-5.18375e-006	-3.21486e-006	0	
-5.58954e-006	-4.02536e-006	0	
-5.26861e-006	-5.2023e-006	0	
-5.92942e-006	-5.25935e-006	0	
-6.32273e-006	-5.43341e-006	0	
-6.63507e-006	-5.69905e-006	0	
-6.93959e-006	-5.96975e-006	0	
-7.18562e-006	-6.21844e-006	0	
-7.35237e-006	-6.4637e-006	0	
-7.48689e-006	-6.71285e-006	0	
-7.62079e-006	-6.95908e-006	0	
-7.76481e-006	-7.19576e-006	0	
-7.91913e-006	-7.41921e-006	0	
-8.07847e-006	-7.62836e-006	0	
-8.23479e-006	-7.82357e-006	0	
-8.3791e-006	-8.00602e-006	0	
-8.50307e-006	-8.17778e-006	0	
-8.60083e-006	-8.34194e-006	0	
-8.6705e-006	-8.50198e-006	0	
-8.71429e-006	-8.6606e-006	0	
-8.73708e-006	-8.81902e-006	0	
-8.74456e-006	-8.97698e-006	0	
-8.74161e-006	-9.13323e-006	0	
-8.73157e-006	-9.28626e-006	0	
-8.71601e-006	-9.43479e-006	0	
-8.69497e-006	-9.57814e-006	0	
-8.6674e-006	-9.71611e-006	0	
-8.63193e-006	-9.84873e-006	0	
-8.58774e-006	-9.97574e-006	0	
-8.53538e-006	-1.00968e-005	0	
-8.47634e-006	-1.02122e-005	0	
-8.41133e-006	-1.03224e-005	0	
-8.34122e-006	-1.04274e-005	0	
-8.26725e-006	-1.0528e-005	0	
-8.18601e-006	-1.06266e-005	0	
-8.09526e-006	-1.07206e-005	0	
-8.00323e-006	-1.0809e-005	0	
-7.8963e-006	-1.08966e-005	0	
-7.77293e-006	-1.09933e-005	0	
-7.66067e-006	-1.1081e-005	0	
-7.50839e-006	-1.11198e-005	0	
-7.32236e-006	-1.11384e-005	0	
-7.15602e-006	-1.11791e-005	0	
-6.98307e-006	-1.12253e-005	0	
-6.81682e-006	-1.12856e-005	0	
-6.65766e-006	-1.13857e-005	0	
-6.4671e-006	-1.14803e-005	0	
-6.2793e-006	-1.15722e-005	0	
-6.08356e-006	-1.16612e-005	0	
-5.88029e-006	-1.17516e-005	0	
-5.67666e-006	-1.18419e-005	0	
-5.46772e-006	-1.193e-005	0	
-5.2548e-006	-1.20137e-005	0	
-5.04151e-006	-1.20954e-005	0	
-4.82549e-006	-1.21753e-005	0	
-4.60412e-006	-1.22511e-005	0	
-4.38117e-006	-1.23233e-005	0	
-4.15748e-006	-1.23905e-005	0	
-3.92867e-006	-1.24544e-005	0	
-3.69548e-006	-1.2514e-005	0	
-3.45948e-006	-1.25678e-005	0	
-3.21852e-006	-1.26189e-005	0	
-2.97172e-006	-1.26652e-005	0	
-2.71999e-006	-1.27066e-005	0	
-2.46273e-006	-1.27433e-005	0	
-2.19903e-006	-1.27749e-005	0	
-1.92805e-006	-1.28056e-005	0	
-1.65146e-006	-1.2831e-005	0	
-1.36707e-006	-1.28483e-005	0	
-1.07305e-006	-1.28656e-005	0	
-7.72144e-007	-1.28815e-005	0	
-4.64055e-007	-1.28915e-005	0	
-1.47254e-007	-1.28997e-005	0	
1.78645e-007	-1.29046e-005	0	
5.10589e-007	-1.29066e-005	0	
8.49848e-007	-1.29088e-005	0	
1.19742e-006	-1.29094e-005	0	
1.55001e-006	-1.29075e-005	0	
1.90933e-006	-1.2906e-005	0	
2.27333e-006	-1.29039e-005	0	
2.64118e-006	-1.29e-005	0	
3.01375e-006	-1.28972e-005	0	
3.38761e-006	-1.28957e-005	0	
3.76009e-006	-1.28943e-005	0	
4.13305e-006	-1.28946e-005	0	
4.50263e-006	-1.28958e-005	0	
-2.33386e-018	-4.61838e-018	0	
-4.15637e-007	-2.24466e-007	0	
-8.91795e-007	-4.61729e-007	0	
-1.361e-006	-7.03812e-007	0	
-1.80396e-006	-9.56524e-007	0	
-2.2201e-006	-1.21146e-006	0	
-2.61039e-006	-1.46232e-006	0	
-2.97743e-006	-1.70667e-006	0	
-3.32447e-006	-1.94421e-006	0	
-3.65455e-006	-2.17468e-006	0	
-3.9737e-006	-2.39638e-006	0	
-4.28422e-006	-2.61463e-006	0	
-4.56839e-006	-2.82923e-006	0	
-4.82828e-006	-3.03091e-006	0	
-5.0644e-006	-3.23605e-006	0	
-5.26352e-006	-3.45738e-006	0	
-5.50765e-006	-3.64878e-006	0	
-5.56884e-006	-3.68247e-006	0	
-5.91502e-006	-4.25824e-006	0	
-6.16167e-006	-4.73448e-006	0	
-6.45799e-006	-5.1429e-006	0	
-6.80378e-006	-5.53185e-006	0	
-7.07969e-006	-5.88944e-006	0	
-7.22026e-006	-6.20569e-006	0	
-7.33756e-006	-6.5043e-006	0	
-7.46728e-006	-6.7823e-006	0	
-7.61953e-006	-7.04311e-006	0	
-7.78876e-006	-7.28863e-006	0	
-7.96543e-006	-7.51947e-006	0	
-8.13941e-006	-7.73556e-006	0	
-8.29964e-006	-7.93712e-006	0	
-8.43525e-006	-8.12579e-006	0	
-8.53851e-006	-8.30545e-006	0	
-8.60769e-006	-8.48103e-006	0	
-8.64715e-006	-8.65632e-006	0	
-8.66456e-006	-8.83262e-006	0	
-8.66775e-006	-9.00908e-006	0	
-8.66273e-006	-9.18368e-006	0	
-8.65298e-006	-9.35415e-006	0	
-8.63951e-006	-9.51876e-006	0	
-8.62159e-006	-9.67664e-006	0	
-8.5977e-006	-9.82777e-006	0	
-8.56647e-006	-9.97243e-006	0	
-8.52728e-006	-1.01108e-005	0	
-8.48046e-006	-1.0243e-005	0	
-8.42686e-006	-1.03691e-005	0	
-8.36717e-006	-1.04892e-005	0	
-8.30184e-006	-1.06037e-005	0	
-8.23074e-006	-1.07133e-005	0	
-8.15236e-006	-1.08185e-005	0	
-8.06653e-006	-1.0919e-005	0	
-7.9735e-006	-1.10162e-005	0	
-7.86935e-006	-1.11113e-005	0	
-7.75593e-006	-1.12015e-005	0	
-7.63822e-006	-1.12879e-005	0	
-7.49724e-006	-1.1377e-005	0	
-7.35455e-006	-1.14755e-005	0	
-7.20344e-006	-1.15419e-005	0	
-7.00435e-006	-1.15683e-005	0	
-6.80032e-006	-1.15964e-005	0	
-6.61104e-006	-1.16439e-005	0	
-6.40986e-006	-1.16926e-005	0	
-6.23964e-006	-1.17793e-005	0	
-6.04662e-006	-1.18829e-005	0	
-5.83855e-006	-1.19805e-005	0	
-5.63619e-006	-1.20743e-005	0	
-5.42678e-006	-1.21686e-005	0	
-5.21501e-006	-1.22604e-005	0	
-5.00183e-006	-1.2349e-005	0	
-4.78661e-006	-1.24359e-005	0	
-4.56853e-006	-1.25186e-005	0	
-4.34926e-006	-1.25961e-005	0	
-4.12699e-006	-1.26684e-005	0	
-3.89917e-006	-1.27378e-005	0	
-3.66865e-006	-1.2803e-005	0	
-3.43525e-006	-1.28627e-005	0	
-3.19652e-006	-1.29191e-005	0	
-2.9527e-006	-1.29704e-005	0	
-2.70425e-006	-1.30167e-005	0	
-2.44861e-006	-1.30582e-005	0	
-2.1862e-006	-1.30948e-005	0	
-1.91796e-006	-1.31294e-005	0	
-1.64413e-006	-1.31589e-005	0	
-1.36112e-006	-1.31834e-005	0	
-1.06896e-006	-1.3206e-005	0	
-7.70093e-007	-1.32232e-005	0	
-4.64296e-007	-1.32369e-005	0	
-1.49108e-007	-1.32489e-005	0	
1.76227e-007	-1.32578e-005	0	
5.06793e-007	-1.32633e-005	0	
8.4554e-007	-1.32673e-005	0	
1.19316e-006	-1.32695e-005	0	
1.54519e-006	-1.32698e-005	0	
1.90508e-006	-1.32696e-005	0	
2.26973e-006	-1.32684e-005	0	
2.63723e-006	-1.3266e-005	0	
3.01036e-006	-1.32648e-005	0	
3.38616e-006	-1.32637e-005	0	
3.75963e-006	-1.32616e-005	0	
4.13297e-006	-1.32606e-005	0	
4.50581e-006	-1.32616e-005	0	
-1.74312e-018	-2.95785e-018	0	
-3.63023e-007	-1.81812e-007	0	
-8.63966e-007	-4.31531e-007	0	
-1.31482e-006	-6.8201e-007	0	
-1.74543e-006	-9.40754e-007	0	
-2.15928e-006	-1.19773e-006	0	
-2.54965e-006	-1.45216e-006	0	
-2.91874e-006	-1.70131e-006	0	
-3.26863e-006	-1.94401e-006	0	
-3.60195e-006	-2.18005e-006	0	
-3.92135e-006	-2.40999e-006	0	
-4.22665e-006	-2.63604e-006	0	
-4.51189e-006	-2.85842e-006	0	
-4.77546e-006	-3.0749e-006	0	
-5.01629e-006	-3.28554e-006	0	
-5.24125e-006	-3.48668e-006	0	
-5.46568e-006	-3.69241e-006	0	
-5.62255e-006	-3.89932e-006	0	
-5.8334e-006	-4.09308e-006	0	
-5.8773e-006	-4.12687e-006	0	
-6.22191e-006	-4.55382e-006	0	
-6.56604e-006	-5.00074e-006	0	
-6.93588e-006	-5.7104e-006	0	
-7.06388e-006	-6.09433e-006	0	
-7.17186e-006	-6.38028e-006	0	
-7.30084e-006	-6.64682e-006	0	
-7.45941e-006	-6.909e-006	0	
-7.64288e-006	-7.16539e-006	0	
-7.83857e-006	-7.41341e-006	0	
-8.0332e-006	-7.65081e-006	0	
-8.21383e-006	-7.87371e-006	0	
-8.365e-006	-8.08139e-006	0	
-8.47477e-006	-8.27812e-006	0	
-8.54142e-006	-8.47098e-006	0	
-8.57321e-006	-8.66499e-006	0	
-8.58236e-006	-8.86107e-006	0	
-8.57958e-006	-9.05735e-006	0	
-8.5722e-006	-9.25084e-006	0	
-8.56365e-006	-9.43844e-006	0	
-8.55387e-006	-9.61793e-006	0	
-8.54076e-006	-9.7886e-006	0	
-8.52186e-006	-9.95095e-006	0	
-8.49556e-006	-1.0106e-005	0	
-8.46145e-006	-1.02545e-005	0	
-8.41998e-006	-1.03969e-005	0	