# vtk DataFile Version 4.1
vtk output
ASCII
DATASET UNSTRUCTURED_GRID

POINTS	30401	float
0	0	0	
0	1	0	
0	2	0	
0	3	0	
0	4	0	
0	5	0	
0	6	0	
0	7	0	
0	8	0	
0	9	0	
0	10	0	
0	11	0	
0	12	0	
0	13	0	
0	14	0	
0	15	0	
0	16	0	
0	17	0	
0	18	0	
0	19	0	
0	20	0	
0	21	0	
0	22	0	
0	23	0	
0	24	0	
0	25	0	
0	26	0	
0	27	0	
0	28	0	
0	29	0	
0	30	0	
0	31	0	
0	32	0	
0	33	0	
0	34	0	
0	35	0	
0	36	0	
0	37	0	
0	38	0	
0	39	0	
0	40	0	
0	41	0	
0	42	0	
0	43	0	
0	44	0	
0	45	0	
0	46	0	
0	47	0	
0	48	0	
0	49	0	
0	50	0	
0	51	0	
0	52	0	
0	53	0	
0	54	0	
0	55	0	
0	56	0	
0	57	0	
0	58	0	
0	59	0	
0	60	0	
0	61	0	
0	62	0	
0	63	0	
0	64	0	
0	65	0	
0	66	0	
0	67	0	
0	68	0	
0	69	0	
0	70	0	
0	71	0	
0	72	0	
0	73	0	
0	74	0	
0	75	0	
0	76	0	
0	77	0	
0	78	0	
0	79	0	
0	80	0	
0	81	0	
0	82	0	
0	83	0	
0	84	0	
0	85	0	
0	86	0	
0	87	0	
0	88	0	
0	89	0	
0	90	0	
0	91	0	
0	92	0	
0	93	0	
0	94	0	
0	95	0	
0	96	0	
0	97	0	
0	98	0	
0	99	0	
0	100	0	
1	0	0	
1	1	0	
1	2	0	
1	3	0	
1	4	0	
1	5	0	
1	6	0	
1	7	0	
1	8	0	
1	9	0	
1	10	0	
1	11	0	
1	12	0	
1	13	0	
1	14	0	
1	15	0	
1	16	0	
1	17	0	
1	18	0	
1	19	0	
1	20	0	
1	21	0	
1	22	0	
1	23	0	
1	24	0	
1	25	0	
1	26	0	
1	27	0	
1	28	0	
1	29	0	
1	30	0	
1	31	0	
1	32	0	
1	33	0	
1	34	0	
1	35	0	
1	36	0	
1	37	0	
1	38	0	
1	39	0	
1	40	0	
1	41	0	
1	42	0	
1	43	0	
1	44	0	
1	45	0	
1	46	0	
1	47	0	
1	48	0	
1	49	0	
1	50	0	
1	51	0	
1	52	0	
1	53	0	
1	54	0	
1	55	0	
1	56	0	
1	57	0	
1	58	0	
1	59	0	
1	60	0	
1	61	0	
1	62	0	
1	63	0	
1	64	0	
1	65	0	
1	66	0	
1	67	0	
1	68	0	
1	69	0	
1	70	0	
1	71	0	
1	72	0	
1	73	0	
1	74	0	
1	75	0	
1	76	0	
1	77	0	
1	78	0	
1	79	0	
1	80	0	
1	81	0	
1	82	0	
1	83	0	
1	84	0	
1	85	0	
1	86	0	
1	87	0	
1	88	0	
1	89	0	
1	90	0	
1	91	0	
1	92	0	
1	93	0	
1	94	0	
1	95	0	
1	96	0	
1	97	0	
1	98	0	
1	99	0	
1	100	0	
2	0	0	
2	1	0	
2	2	0	
2	3	0	
2	4	0	
2	5	0	
2	6	0	
2	7	0	
2	8	0	
2	9	0	
2	10	0	
2	11	0	
2	12	0	
2	13	0	
2	14	0	
2	15	0	
2	16	0	
2	17	0	
2	18	0	
2	19	0	
2	20	0	
2	21	0	
2	22	0	
2	23	0	
2	24	0	
2	25	0	
2	26	0	
2	27	0	
2	28	0	
2	29	0	
2	30	0	
2	31	0	
2	32	0	
2	33	0	
2	34	0	
2	35	0	
2	36	0	
2	37	0	
2	38	0	
2	39	0	
2	40	0	
2	41	0	
2	42	0	
2	43	0	
2	44	0	
2	45	0	
2	46	0	
2	47	0	
2	48	0	
2	49	0	
2	50	0	
2	51	0	
2	52	0	
2	53	0	
2	54	0	
2	55	0	
2	56	0	
2	57	0	
2	58	0	
2	59	0	
2	60	0	
2	61	0	
2	62	0	
2	63	0	
2	64	0	
2	65	0	
2	66	0	
2	67	0	
2	68	0	
2	69	0	
2	70	0	
2	71	0	
2	72	0	
2	73	0	
2	74	0	
2	75	0	
2	76	0	
2	77	0	
2	78	0	
2	79	0	
2	80	0	
2	81	0	
2	82	0	
2	83	0	
2	84	0	
2	85	0	
2	86	0	
2	87	0	
2	88	0	
2	89	0	
2	90	0	
2	91	0	
2	92	0	
2	93	0	
2	94	0	
2	95	0	
2	96	0	
2	97	0	
2	98	0	
2	99	0	
2	100	0	
3	0	0	
3	1	0	
3	2	0	
3	3	0	
3	4	0	
3	5	0	
3	6	0	
3	7	0	
3	8	0	
3	9	0	
3	10	0	
3	11	0	
3	12	0	
3	13	0	
3	14	0	
3	15	0	
3	16	0	
3	17	0	
3	18	0	
3	19	0	
3	20	0	
3	21	0	
3	22	0	
3	23	0	
3	24	0	
3	25	0	
3	26	0	
3	27	0	
3	28	0	
3	29	0	
3	30	0	
3	31	0	
3	32	0	
3	33	0	
3	34	0	
3	35	0	
3	36	0	
3	37	0	
3	38	0	
3	39	0	
3	40	0	
3	41	0	
3	42	0	
3	43	0	
3	44	0	
3	45	0	
3	46	0	
3	47	0	
3	48	0	
3	49	0	
3	50	0	
3	51	0	
3	52	0	
3	53	0	
3	54	0	
3	55	0	
3	56	0	
3	57	0	
3	58	0	
3	59	0	
3	60	0	
3	61	0	
3	62	0	
3	63	0	
3	64	0	
3	65	0	
3	66	0	
3	67	0	
3	68	0	
3	69	0	
3	70	0	
3	71	0	
3	72	0	
3	73	0	
3	74	0	
3	75	0	
3	76	0	
3	77	0	
3	78	0	
3	79	0	
3	80	0	
3	81	0	
3	82	0	
3	83	0	
3	84	0	
3	85	0	
3	86	0	
3	87	0	
3	88	0	
3	89	0	
3	90	0	
3	91	0	
3	92	0	
3	93	0	
3	94	0	
3	95	0	
3	96	0	
3	97	0	
3	98	0	
3	99	0	
3	100	0	
4	0	0	
4	1	0	
4	2	0	
4	3	0	
4	4	0	
4	5	0	
4	6	0	
4	7	0	
4	8	0	
4	9	0	
4	10	0	
4	11	0	
4	12	0	
4	13	0	
4	14	0	
4	15	0	
4	16	0	
4	17	0	
4	18	0	
4	19	0	
4	20	0	
4	21	0	
4	22	0	
4	23	0	
4	24	0	
4	25	0	
4	26	0	
4	27	0	
4	28	0	
4	29	0	
4	30	0	
4	31	0	
4	32	0	
4	33	0	
4	34	0	
4	35	0	
4	36	0	
4	37	0	
4	38	0	
4	39	0	
4	40	0	
4	41	0	
4	42	0	
4	43	0	
4	44	0	
4	45	0	
4	46	0	
4	47	0	
4	48	0	
4	49	0	
4	50	0	
4	51	0	
4	52	0	
4	53	0	
4	54	0	
4	55	0	
4	56	0	
4	57	0	
4	58	0	
4	59	0	
4	60	0	
4	61	0	
4	62	0	
4	63	0	
4	64	0	
4	65	0	
4	66	0	
4	67	0	
4	68	0	
4	69	0	
4	70	0	
4	71	0	
4	72	0	
4	73	0	
4	74	0	
4	75	0	
4	76	0	
4	77	0	
4	78	0	
4	79	0	
4	80	0	
4	81	0	
4	82	0	
4	83	0	
4	84	0	
4	85	0	
4	86	0	
4	87	0	
4	88	0	
4	89	0	
4	90	0	
4	91	0	
4	92	0	
4	93	0	
4	94	0	
4	95	0	
4	96	0	
4	97	0	
4	98	0	
4	99	0	
4	100	0	
5	0	0	
5	1	0	
5	2	0	
5	3	0	
5	4	0	
5	5	0	
5	6	0	
5	7	0	
5	8	0	
5	9	0	
5	10	0	
5	11	0	
5	12	0	
5	13	0	
5	14	0	
5	15	0	
5	16	0	
5	17	0	
5	18	0	
5	19	0	
5	20	0	
5	21	0	
5	22	0	
5	23	0	
5	24	0	
5	25	0	
5	26	0	
5	27	0	
5	28	0	
5	29	0	
5	30	0	
5	31	0	
5	32	0	
5	33	0	
5	34	0	
5	35	0	
5	36	0	
5	37	0	
5	38	0	
5	39	0	
5	40	0	
5	41	0	
5	42	0	
5	43	0	
5	44	0	
5	45	0	
5	46	0	
5	47	0	
5	48	0	
5	49	0	
5	50	0	
5	51	0	
5	52	0	
5	53	0	
5	54	0	
5	55	0	
5	56	0	
5	57	0	
5	58	0	
5	59	0	
5	60	0	
5	61	0	
5	62	0	
5	63	0	
5	64	0	
5	65	0	
5	66	0	
5	67	0	
5	68	0	
5	69	0	
5	70	0	
5	71	0	
5	72	0	
5	73	0	
5	74	0	
5	75	0	
5	76	0	
5	77	0	
5	78	0	
5	79	0	
5	80	0	
5	81	0	
5	82	0	
5	83	0	
5	84	0	
5	85	0	
5	86	0	
5	87	0	
5	88	0	
5	89	0	
5	90	0	
5	91	0	
5	92	0	
5	93	0	
5	94	0	
5	95	0	
5	96	0	
5	97	0	
5	98	0	
5	99	0	
5	100	0	
6	0	0	
6	1	0	
6	2	0	
6	3	0	
6	4	0	
6	5	0	
6	6	0	
6	7	0	
6	8	0	
6	9	0	
6	10	0	
6	11	0	
6	12	0	
6	13	0	
6	14	0	
6	15	0	
6	16	0	
6	17	0	
6	18	0	
6	19	0	
6	20	0	
6	21	0	
6	22	0	
6	23	0	
6	24	0	
6	25	0	
6	26	0	
6	27	0	
6	28	0	
6	29	0	
6	30	0	
6	31	0	
6	32	0	
6	33	0	
6	34	0	
6	35	0	
6	36	0	
6	37	0	
6	38	0	
6	39	0	
6	40	0	
6	41	0	
6	42	0	
6	43	0	
6	44	0	
6	45	0	
6	46	0	
6	47	0	
6	48	0	
6	49	0	
6	50	0	
6	51	0	
6	52	0	
6	53	0	
6	54	0	
6	55	0	
6	56	0	
6	57	0	
6	58	0	
6	59	0	
6	60	0	
6	61	0	
6	62	0	
6	63	0	
6	64	0	
6	65	0	
6	66	0	
6	67	0	
6	68	0	
6	69	0	
6	70	0	
6	71	0	
6	72	0	
6	73	0	
6	74	0	
6	75	0	
6	76	0	
6	77	0	
6	78	0	
6	79	0	
6	80	0	
6	81	0	
6	82	0	
6	83	0	
6	84	0	
6	85	0	
6	86	0	
6	87	0	
6	88	0	
6	89	0	
6	90	0	
6	91	0	
6	92	0	
6	93	0	
6	94	0	
6	95	0	
6	96	0	
6	97	0	
6	98	0	
6	99	0	
6	100	0	
7	0	0	
7	1	0	
7	2	0	
7	3	0	
7	4	0	
7	5	0	
7	6	0	
7	7	0	
7	8	0	
7	9	0	
7	10	0	
7	11	0	
7	12	0	
7	13	0	
7	14	0	
7	15	0	
7	16	0	
7	17	0	
7	18	0	
7	19	0	
7	20	0	
7	21	0	
7	22	0	
7	23	0	
7	24	0	
7	25	0	
7	26	0	
7	27	0	
7	28	0	
7	29	0	
7	30	0	
7	31	0	
7	32	0	
7	33	0	
7	34	0	
7	35	0	
7	36	0	
7	37	0	
7	38	0	
7	39	0	
7	40	0	
7	41	0	
7	42	0	
7	43	0	
7	44	0	
7	45	0	
7	46	0	
7	47	0	
7	48	0	
7	49	0	
7	50	0	
7	51	0	
7	52	0	
7	53	0	
7	54	0	
7	55	0	
7	56	0	
7	57	0	
7	58	0	
7	59	0	
7	60	0	
7	61	0	
7	62	0	
7	63	0	
7	64	0	
7	65	0	
7	66	0	
7	67	0	
7	68	0	
7	69	0	
7	70	0	
7	71	0	
7	72	0	
7	73	0	
7	74	0	
7	75	0	
7	76	0	
7	77	0	
7	78	0	
7	79	0	
7	80	0	
7	81	0	
7	82	0	
7	83	0	
7	84	0	
7	85	0	
7	86	0	
7	87	0	
7	88	0	
7	89	0	
7	90	0	
7	91	0	
7	92	0	
7	93	0	
7	94	0	
7	95	0	
7	96	0	
7	97	0	
7	98	0	
7	99	0	
7	100	0	
8	0	0	
8	1	0	
8	2	0	
8	3	0	
8	4	0	
8	5	0	
8	6	0	
8	7	0	
8	8	0	
8	9	0	
8	10	0	
8	11	0	
8	12	0	
8	13	0	
8	14	0	
8	15	0	
8	16	0	
8	17	0	
8	18	0	
8	19	0	
8	20	0	
8	21	0	
8	22	0	
8	23	0	
8	24	0	
8	25	0	
8	26	0	
8	27	0	
8	28	0	
8	29	0	
8	30	0	
8	31	0	
8	32	0	
8	33	0	
8	34	0	
8	35	0	
8	36	0	
8	37	0	
8	38	0	
8	39	0	
8	40	0	
8	41	0	
8	42	0	
8	43	0	
8	44	0	
8	45	0	
8	46	0	
8	47	0	
8	48	0	
8	49	0	
8	50	0	
8	51	0	
8	52	0	
8	53	0	
8	54	0	
8	55	0	
8	56	0	
8	57	0	
8	58	0	
8	59	0	
8	60	0	
8	61	0	
8	62	0	
8	63	0	
8	64	0	
8	65	0	
8	66	0	
8	67	0	
8	68	0	
8	69	0	
8	70	0	
8	71	0	
8	72	0	
8	73	0	
8	74	0	
8	75	0	
8	76	0	
8	77	0	
8	78	0	
8	79	0	
8	80	0	
8	81	0	
8	82	0	
8	83	0	
8	84	0	
8	85	0	
8	86	0	
8	87	0	
8	88	0	
8	89	0	
8	90	0	
8	91	0	
8	92	0	
8	93	0	
8	94	0	
8	95	0	
8	96	0	
8	97	0	
8	98	0	
8	99	0	
8	100	0	
9	0	0	
9	1	0	
9	2	0	
9	3	0	
9	4	0	
9	5	0	
9	6	0	
9	7	0	
9	8	0	
9	9	0	
9	10	0	
9	11	0	
9	12	0	
9	13	0	
9	14	0	
9	15	0	
9	16	0	
9	17	0	
9	18	0	
9	19	0	
9	20	0	
9	21	0	
9	22	0	
9	23	0	
9	24	0	
9	25	0	
9	26	0	
9	27	0	
9	28	0	
9	29	0	
9	30	0	
9	31	0	
9	32	0	
9	33	0	
9	34	0	
9	35	0	
9	36	0	
9	37	0	
9	38	0	
9	39	0	
9	40	0	
9	41	0	
9	42	0	
9	43	0	
9	44	0	
9	45	0	
9	46	0	
9	47	0	
9	48	0	
9	49	0	
9	50	0	
9	51	0	
9	52	0	
9	53	0	
9	54	0	
9	55	0	
9	56	0	
9	57	0	
9	58	0	
9	59	0	
9	60	0	
9	61	0	
9	62	0	
9	63	0	
9	64	0	
9	65	0	
9	66	0	
9	67	0	
9	68	0	
9	69	0	
9	70	0	
9	71	0	
9	72	0	
9	73	0	
9	74	0	
9	75	0	
9	76	0	
9	77	0	
9	78	0	
9	79	0	
9	80	0	
9	81	0	
9	82	0	
9	83	0	
9	84	0	
9	85	0	
9	86	0	
9	87	0	
9	88	0	
9	89	0	
9	90	0	
9	91	0	
9	92	0	
9	93	0	
9	94	0	
9	95	0	
9	96	0	
9	97	0	
9	98	0	
9	99	0	
9	100	0	
10	0	0	
10	1	0	
10	2	0	
10	3	0	
10	4	0	
10	5	0	
10	6	0	
10	7	0	
10	8	0	
10	9	0	
10	10	0	
10	11	0	
10	12	0	
10	13	0	
10	14	0	
10	15	0	
10	16	0	
10	17	0	
10	18	0	
10	19	0	
10	20	0	
10	21	0	
10	22	0	
10	23	0	
10	24	0	
10	25	0	
10	26	0	
10	27	0	
10	28	0	
10	29	0	
10	30	0	
10	31	0	
10	32	0	
10	33	0	
10	34	0	
10	35	0	
10	36	0	
10	37	0	
10	38	0	
10	39	0	
10	40	0	
10	41	0	
10	42	0	
10	43	0	
10	44	0	
10	45	0	
10	46	0	
10	47	0	
10	48	0	
10	49	0	
10	50	0	
10	51	0	
10	52	0	
10	53	0	
10	54	0	
10	55	0	
10	56	0	
10	57	0	
10	58	0	
10	59	0	
10	60	0	
10	61	0	
10	62	0	
10	63	0	
10	64	0	
10	65	0	
10	66	0	
10	67	0	
10	68	0	
10	69	0	
10	70	0	
10	71	0	
10	72	0	
10	73	0	
10	74	0	
10	75	0	
10	76	0	
10	77	0	
10	78	0	
10	79	0	
10	80	0	
10	81	0	
10	82	0	
10	83	0	
10	84	0	
10	85	0	
10	86	0	
10	87	0	
10	88	0	
10	89	0	
10	90	0	
10	91	0	
10	92	0	
10	93	0	
10	94	0	
10	95	0	
10	96	0	
10	97	0	
10	98	0	
10	99	0	
10	100	0	
11	0	0	
11	1	0	
11	2	0	
11	3	0	
11	4	0	
11	5	0	
11	6	0	
11	7	0	
11	8	0	
11	9	0	
11	10	0	
11	11	0	
11	12	0	
11	13	0	
11	14	0	
11	15	0	
11	16	0	
11	17	0	
11	18	0	
11	19	0	
11	20	0	
11	21	0	
11	22	0	
11	23	0	
11	24	0	
11	25	0	
11	26	0	
11	27	0	
11	28	0	
11	29	0	
11	30	0	
11	31	0	
11	32	0	
11	33	0	
11	34	0	
11	35	0	
11	36	0	
11	37	0	
11	38	0	
11	39	0	
11	40	0	
11	41	0	
11	42	0	
11	43	0	
11	44	0	
11	45	0	
11	46	0	
11	47	0	
11	48	0	
11	49	0	
11	50	0	
11	51	0	
11	52	0	
11	53	0	
11	54	0	
11	55	0	
11	56	0	
11	57	0	
11	58	0	
11	59	0	
11	60	0	
11	61	0	
11	62	0	
11	63	0	
11	64	0	
11	65	0	
11	66	0	
11	67	0	
11	68	0	
11	69	0	
11	70	0	
11	71	0	
11	72	0	
11	73	0	
11	74	0	
11	75	0	
11	76	0	
11	77	0	
11	78	0	
11	79	0	
11	80	0	
11	81	0	
11	82	0	
11	83	0	
11	84	0	
11	85	0	
11	86	0	
11	87	0	
11	88	0	
11	89	0	
11	90	0	
11	91	0	
11	92	0	
11	93	0	
11	94	0	
11	95	0	
11	96	0	
11	97	0	
11	98	0	
11	99	0	
11	100	0	
12	0	0	
12	1	0	
12	2	0	
12	3	0	
12	4	0	
12	5	0	
12	6	0	
12	7	0	
12	8	0	
12	9	0	
12	10	0	
12	11	0	
12	12	0	
12	13	0	
[...]
POINT_DATA	30401
VECTORS d float
-1.30626e-016	-2.3609e-016	0	
-6.68655e-006	-7.3173e-006	0	
-1.11623e-005	-1.19441e-005	0	
-1.49531e-005	-1.58754e-005	0	
-1.83071e-005	-1.94373e-005	0	
-2.13889e-005	-2.27211e-005	0	
-2.42466e-005	-2.58075e-005	0	
-2.69216e-005	-2.87388e-005	0	
-2.94399e-005	-3.15453e-005	0	
-3.18213e-005	-3.42485e-005	0	
-3.40806e-005	-3.68644e-005	0	
-3.623e-005	-3.94055e-005	0	
-3.82791e-005	-4.18814e-005	0	
-4.02363e-005	-4.43e-005	0	
-4.21086e-005	-4.66676e-005	0	
-4.39021e-005	-4.89891e-005	0	
-4.56223e-005	-5.12689e-005	0	
-4.72738e-005	-5.35104e-005	0	
-4.8861e-005	-5.57163e-005	0	
-5.03876e-005	-5.7889e-005	0	
-5.1857e-005	-6.00301e-005	0	
-5.32724e-005	-6.21412e-005	0	
-5.46365e-005	-6.42233e-005	0	
-5.59519e-005	-6.62772e-005	0	
-5.72208e-005	-6.83036e-005	0	
-5.84454e-005	-7.03026e-005	0	
-5.96275e-005	-7.22742e-005	0	
-6.07687e-005	-7.42186e-005	0	
-6.18707e-005	-7.61353e-005	0	
-6.29345e-005	-7.80239e-005	0	
-6.39614e-005	-7.98839e-005	0	
-6.49523e-005	-8.17144e-005	0	
-6.5908e-005	-8.35147e-005	0	
-6.6829e-005	-8.52838e-005	0	
-6.77159e-005	-8.70207e-005	0	
-6.85689e-005	-8.87241e-005	0	
-6.9388e-005	-9.0393e-005	0	
-7.01733e-005	-9.20259e-005	0	
-7.09246e-005	-9.36214e-005	0	
-7.16414e-005	-9.51781e-005	0	
-7.23232e-005	-9.66945e-005	0	
-7.29694e-005	-9.8169e-005	0	
-7.3579e-005	-9.96e-005	0	
-7.4151e-005	-0.000100986	0	
-7.4684e-005	-0.000102325	0	
-7.51768e-005	-0.000103615	0	
-7.56277e-005	-0.000104855	0	
-7.60349e-005	-0.000106043	0	
-7.63965e-005	-0.000107178	0	
-7.67104e-005	-0.000108257	0	
-7.69745e-005	-0.00010928	0	
-7.7186e-005	-0.000110244	0	
-7.73424e-005	-0.000111148	0	
-7.74408e-005	-0.000111991	0	
-7.74783e-005	-0.000112771	0	
-7.74519e-005	-0.000113487	0	
-7.7358e-005	-0.000114137	0	
-7.71933e-005	-0.000114722	0	
-7.69541e-005	-0.00011524	0	
-7.66368e-005	-0.00011569	0	
-7.62377e-005	-0.000116072	0	
-7.57525e-005	-0.000116386	0	
-7.51774e-005	-0.000116632	0	
-7.45083e-005	-0.00011681	0	
-7.37412e-005	-0.000116921	0	
-7.28721e-005	-0.000116965	0	
-7.1897e-005	-0.000116944	0	
-7.08119e-005	-0.000116859	0	
-6.96128e-005	-0.000116713	0	
-6.82961e-005	-0.000116506	0	
-6.68582e-005	-0.000116243	0	
-6.52961e-005	-0.000115926	0	
-6.36068e-005	-0.000115558	0	
-6.17878e-005	-0.000115144	0	
-5.98369e-005	-0.000114688	0	
-5.77526e-005	-0.000114193	0	
-5.55336e-005	-0.000113666	0	
-5.31796e-005	-0.000113111	0	
-5.06907e-005	-0.000112534	0	
-4.80678e-005	-0.000111942	0	
-4.53127e-005	-0.00011134	0	
-4.2428e-005	-0.000110735	0	
-3.94171e-005	-0.000110133	0	
-3.62846e-005	-0.000109541	0	
-3.30359e-005	-0.000108965	0	
-2.96774e-005	-0.000108412	0	
-2.62169e-005	-0.000107888	0	
-2.2663e-005	-0.000107399	0	
-1.90251e-005	-0.00010695	0	
-1.53139e-005	-0.000106546	0	
-1.15408e-005	-0.000106189	0	
-7.71806e-006	-0.000105884	0	
-3.85844e-006	-0.000105631	0	
2.4916e-008	-0.000105431	0	
3.91877e-006	-0.000105283	0	
7.8104e-006	-0.000105181	0	
1.16882e-005	-0.000105122	0	
1.55428e-005	-0.000105095	0	
1.93686e-005	-0.000105091	0	
2.31671e-005	-0.000105097	0	
2.69513e-005	-0.000105099	0	
-3.71661e-017	-8.64833e-017	0	
-4.85432e-006	-4.38116e-006	0	
-9.36691e-006	-8.74729e-006	0	
-1.33268e-005	-1.28571e-005	0	
-1.68186e-005	-1.65716e-005	0	
-1.9998e-005	-2.0014e-005	0	
-2.29324e-005	-2.32431e-005	0	
-2.56687e-005	-2.63044e-005	0	
-2.82374e-005	-2.92292e-005	0	
-3.0661e-005	-3.20407e-005	0	
-3.29563e-005	-3.47565e-005	0	
-3.51369e-005	-3.739e-005	0	
-3.72133e-005	-3.99518e-005	0	
-3.91948e-005	-4.24507e-005	0	
-4.10888e-005	-4.48934e-005	0	
-4.29019e-005	-4.72857e-005	0	
-4.464e-005	-4.96321e-005	0	
-4.6308e-005	-5.19364e-005	0	
-4.79105e-005	-5.42019e-005	0	
-4.94516e-005	-5.6431e-005	0	
-5.09347e-005	-5.86259e-005	0	
-5.23632e-005	-6.07881e-005	0	
-5.37401e-005	-6.29191e-005	0	
-5.50678e-005	-6.50199e-005	0	
-5.63488e-005	-6.70911e-005	0	
-5.75855e-005	-6.91333e-005	0	
-5.87795e-005	-7.11467e-005	0	
-5.99328e-005	-7.31313e-005	0	
-6.10469e-005	-7.50872e-005	0	
-6.21231e-005	-7.7014e-005	0	
-6.31625e-005	-7.89111e-005	0	
-6.41664e-005	-8.07782e-005	0	
-6.51353e-005	-8.26145e-005	0	
-6.607e-005	-8.44192e-005	0	
-6.6971e-005	-8.61914e-005	0	
-6.78385e-005	-8.79302e-005	0	
-6.86727e-005	-8.96343e-005	0	
-6.94736e-005	-9.13028e-005	0	
-7.02411e-005	-9.29342e-005	0	
-7.09748e-005	-9.45274e-005	0	
-7.16741e-005	-9.6081e-005	0	
-7.23384e-005	-9.75934e-005	0	
-7.29668e-005	-9.90634e-005	0	
-7.35582e-005	-0.000100489	0	
-7.41113e-005	-0.00010187	0	
-7.46249e-005	-0.000103203	0	
-7.50973e-005	-0.000104488	0	
-7.55267e-005	-0.000105723	0	
-7.59112e-005	-0.000106906	0	
-7.62487e-005	-0.000108036	0	
-7.6537e-005	-0.000109112	0	
-7.67733e-005	-0.000110131	0	
-7.69551e-005	-0.000111094	0	
-7.70795e-005	-0.000111997	0	
-7.71436e-005	-0.000112841	0	
-7.71442e-005	-0.000113624	0	
-7.70778e-005	-0.000114345	0	
-7.69408e-005	-0.000115003	0	
-7.67297e-005	-0.000115598	0	
-7.64408e-005	-0.000116129	0	
-7.607e-005	-0.000116595	0	
-7.56134e-005	-0.000116997	0	
-7.50666e-005	-0.000117334	0	
-7.44257e-005	-0.000117608	0	
-7.36865e-005	-0.000117817	0	
-7.28449e-005	-0.000117964	0	
-7.18967e-005	-0.00011805	0	
-7.08378e-005	-0.000118074	0	
-6.96642e-005	-0.000118041	0	
-6.83718e-005	-0.000117951	0	
-6.69572e-005	-0.000117807	0	
-6.54169e-005	-0.000117612	0	
-6.3748e-005	-0.000117368	0	
-6.19478e-005	-0.00011708	0	
-6.00139e-005	-0.00011675	0	
-5.79447e-005	-0.000116384	0	
-5.57387e-005	-0.000115986	0	
-5.33954e-005	-0.000115559	0	
-5.09148e-005	-0.00011511	0	
-4.82979e-005	-0.000114644	0	
-4.55461e-005	-0.000114165	0	
-4.26621e-005	-0.000113681	0	
-3.96494e-005	-0.000113195	0	
-3.65123e-005	-0.000112715	0	
-3.32565e-005	-0.000112245	0	
-2.98885e-005	-0.000111791	0	
-2.6416e-005	-0.000111358	0	
-2.28479e-005	-0.000110952	0	
-1.91939e-005	-0.000110577	0	
-1.54649e-005	-0.000110236	0	
-1.16727e-005	-0.000109932	0	
-7.83e-006	-0.000109669	0	
-3.95007e-006	-0.000109446	0	
-4.66622e-008	-0.000109265	0	
3.86634e-006	-0.000109124	0	
7.77544e-006	-0.000109021	0	
1.16682e-005	-0.000108951	0	
1.55344e-005	-0.00010891	0	
1.93676e-005	-0.000108889	0	
2.31683e-005	-0.000108883	0	
2.69491e-005	-0.000108882	0	
-2.15158e-017	-7.01891e-017	0	
-3.83059e-006	-3.36371e-006	0	
-7.97295e-006	-7.07175e-006	0	
-1.18521e-005	-1.08152e-005	0	
-1.53821e-005	-1.44122e-005	0	
-1.86189e-005	-1.78365e-005	0	
-2.16106e-005	-2.1094e-005	0	
-2.43986e-005	-2.42054e-005	0	
-2.70128e-005	-2.71908e-005	0	
-2.94763e-005	-3.00674e-005	0	
-3.18066e-005	-3.28496e-005	0	
-3.40181e-005	-3.55492e-005	0	
-3.6122e-005	-3.81761e-005	0	
-3.81281e-005	-4.07383e-005	0	
-4.00443e-005	-4.32423e-005	0	
-4.18777e-005	-4.56939e-005	0	
-4.36344e-005	-4.80976e-005	0	
-4.53197e-005	-5.04571e-005	0	
-4.69382e-005	-5.27759e-005	0	
-4.84944e-005	-5.50564e-005	0	
-4.99919e-005	-5.73009e-005	0	
-5.14341e-005	-5.95111e-005	0	
-5.28241e-005	-6.16886e-005	0	
-5.41647e-005	-6.38344e-005	0	
-5.54584e-005	-6.59494e-005	0	
-5.67075e-005	-6.80341e-005	0	
-5.79139e-005	-7.0089e-005	0	
-5.90796e-005	-7.21143e-005	0	
-6.02061e-005	-7.41099e-005	0	
-6.12948e-005	-7.60758e-005	0	
-6.23471e-005	-7.80115e-005	0	
-6.33639e-005	-7.99168e-005	0	
-6.43461e-005	-8.1791e-005	0	
-6.52944e-005	-8.36335e-005	0	
-6.62095e-005	-8.54436e-005	0	
-6.70915e-005	-8.72202e-005	0	
-6.79406e-005	-8.89625e-005	0	
-6.87569e-005	-9.06695e-005	0	
-6.95404e-005	-9.23401e-005	0	
-7.02905e-005	-9.3973e-005	0	
-7.10069e-005	-9.55671e-005	0	
-7.16888e-005	-9.71211e-005	0	
-7.23355e-005	-9.86337e-005	0	
-7.29458e-005	-0.000100104	0	
-7.35184e-005	-0.000101529	0	
-7.40521e-005	-0.000102909	0	
-7.45453e-005	-0.000104243	0	
-7.49961e-005	-0.000105528	0	
-7.54027e-005	-0.000106763	0	
-7.57628e-005	-0.000107947	0	
-7.60743e-005	-0.000109079	0	
-7.63345e-005	-0.000110158	0	
-7.65406e-005	-0.000111181	0	
-7.669e-005	-0.000112149	0	
-7.67795e-005	-0.000113059	0	
-7.68058e-005	-0.000113912	0	
-7.67656e-005	-0.000114705	0	
-7.66553e-005	-0.000115438	0	
-7.6471e-005	-0.000116111	0	
-7.62091e-005	-0.000116724	0	
-7.58654e-005	-0.000117274	0	
-7.54359e-005	-0.000117764	0	
-7.49163e-005	-0.000118192	0	
-7.43024e-005	-0.00011856	0	
-7.35899e-005	-0.000118866	0	
-7.27747e-005	-0.000119113	0	
-7.18523e-005	-0.000119301	0	
-7.08186e-005	-0.000119432	0	
-6.96694e-005	-0.000119506	0	
-6.84006e-005	-0.000119527	0	
-6.70085e-005	-0.000119495	0	
-6.54896e-005	-0.000119414	0	
-6.38407e-005	-0.000119286	0	
-6.2059e-005	-0.000119114	0	
-6.0142e-005	-0.000118903	0	
-5.80879e-005	-0.000118654	0	
-5.58953e-005	-0.000118373	0	
-5.35633e-005	-0.000118063	0	
-5.1092e-005	-0.000117728	0	
-4.8482e-005	-0.000117375	0	
-4.57349e-005	-0.000117007	0	
-4.28533e-005	-0.000116628	0	
-3.98406e-005	-0.000116246	0	
-3.67012e-005	-0.000115863	0	
-3.34407e-005	-0.000115486	0	
-3.00658e-005	-0.000115118	0	
-2.65842e-005	-0.000114765	0	
-2.3005e-005	-0.000114431	0	
-1.93382e-005	-0.00011412	0	
-1.55947e-005	-0.000113835	0	
-1.17869e-005	-0.000113579	0	
-7.9275e-006	-0.000113354	0	
-4.0304e-006	-0.000113161	0	
-1.09742e-007	-0.000113002	0	
3.8201e-006	-0.000112876	0	
7.74508e-006	-0.00011278	0	
1.16522e-005	-0.000112714	0	
1.55303e-005	-0.000112673	0	
1.93719e-005	-0.000112654	0	
2.31747e-005	-0.000112649	0	
2.69439e-005	-0.00011265	0	
-1.95221e-017	-6.37949e-017	0	
-3.36488e-006	-2.95645e-006	0	
-7.03552e-006	-6.1585e-006	0	
-1.0671e-005	-9.50264e-006	0	
-1.4119e-005	-1.28617e-005	0	
-1.73401e-005	-1.61551e-005	0	
-2.03461e-005	-1.93515e-005	0	
-2.31595e-005	-2.24444e-005	0	
-2.58028e-005	-2.54372e-005	0	
-2.82955e-005	-2.83373e-005	0	
-3.06539e-005	-3.11531e-005	0	
-3.28915e-005	-3.38927e-005	0	
-3.50197e-005	-3.65632e-005	0	
-3.70481e-005	-3.91713e-005	0	
-3.89851e-005	-4.17224e-005	0	
-4.08377e-005	-4.42214e-005	0	
-4.26122e-005	-4.66724e-005	0	
-4.43142e-005	-4.90791e-005	0	
-4.59486e-005	-5.14443e-005	0	
-4.75197e-005	-5.37707e-005	0	
-4.90314e-005	-5.60603e-005	0	
-5.04873e-005	-5.83149e-005	0	
-5.18906e-005	-6.0536e-005	0	
-5.3244e-005	-6.27246e-005	0	
-5.45504e-005	-6.48818e-005	0	
-5.58119e-005	-6.70081e-005	0	
-5.70307e-005	-6.9104e-005	0	
-5.82087e-005	-7.11698e-005	0	
-5.93476e-005	-7.32055e-005	0	
-6.04489e-005	-7.52111e-005	0	
-6.15138e-005	-7.71865e-005	0	
-6.25436e-005	-7.91313e-005	0	
-6.35389e-005	-8.10451e-005	0	
-6.45007e-005	-8.29272e-005	0	
-6.54296e-005	-8.4777e-005	0	
-6.63258e-005	-8.65939e-005	0	
-6.71895e-005	-8.83769e-005	0	
-6.8021e-005	-9.01251e-005	0	
-6.88199e-005	-9.18375e-005	0	
-6.95861e-005	-9.35131e-005	0	
-7.03191e-005	-9.51508e-005	0	
-7.10182e-005	-9.67495e-005	0	
-7.16825e-005	-9.83079e-005	0	
-7.2311e-005	-9.98249e-005	0	
-7.29026e-005	-0.000101299	0	
-7.34557e-005	-0.000102729	0	
-7.39689e-005	-0.000104115	0	
-7.44404e-005	-0.000105453	0	
-7.48682e-005	-0.000106744	0	
-7.52501e-005	-0.000107986	0	
-7.5584e-005	-0.000109177	0	
-7.58671e-005	-0.000110317	0	
-7.60967e-005	-0.000111405	0	
-7.62701e-005	-0.000112439	0	
-7.6384e-005	-0.000113418	0	
-7.64352e-005	-0.000114342	0	
-7.64202e-005	-0.000115209	0	
-7.63355e-005	-0.00011602	0	
-7.61771e-005	-0.000116772	0	
-7.59413e-005	-0.000117466	0	
-7.56238e-005	-0.000118102	0	
-7.52206e-005	-0.000118679	0	
-7.47273e-005	-0.000119197	0	
-7.41397e-005	-0.000119657	0	
-7.34532e-005	-0.000120059	0	
-7.26636e-005	-0.000120403	0	
-7.17666e-005	-0.000120691	0	
-7.07576e-005	-0.000120923	0	
-6.96325e-005	-0.000121102	0	
-6.8387e-005	-0.000121227	0	
-6.70173e-005	-0.000121302	0	
-6.55198e-005	-0.000121329	0	
-6.38911e-005	-0.000121309	0	
-6.21283e-005	-0.000121246	0	
-6.02287e-005	-0.000121143	0	
-5.81905e-005	-0.000121002	0	
-5.6012e-005	-0.000120828	0	
-5.36924e-005	-0.000120623	0	
-5.12314e-005	-0.000120393	0	
-4.86298e-005	-0.000120141	0	
-4.5889e-005	-0.000119871	0	
-4.30115e-005	-0.000119588	0	
-4.00006e-005	-0.000119296	0	
-3.68608e-005	-0.000119	0	
-3.35977e-005	-0.000118703	0	
-3.02181e-005	-0.000118411	0	
-2.67297e-005	-0.000118128	0	
-2.31416e-005	-0.000117857	0	
-1.94639e-005	-0.000117602	0	
-1.57081e-005	-0.000117367	0	
-1.18863e-005	-0.000117153	0	
-8.01187e-006	-0.000116965	0	
-4.09875e-006	-0.000116802	0	
-1.61513e-007	-0.000116666	0	
3.78507e-006	-0.000116558	0	
7.72649e-006	-0.000116477	0	
1.1649e-005	-0.000116421	0	
1.55405e-005	-0.00011639	0	
1.93913e-005	-0.000116379	0	
2.31948e-005	-0.000116383	0	
2.69475e-005	-0.000116392	0	
-1.83504e-017	-5.90575e-017	0	
-3.0658e-006	-2.71295e-006	0	
-6.38817e-006	-5.6047e-006	0	
-9.76712e-006	-8.64459e-006	0	
-1.30624e-005	-1.17593e-005	0	
-1.6207e-005	-1.48813e-005	0	
-1.91813e-005	-1.79676e-005	0	
-2.19879e-005	-2.09955e-005	0	
-2.46377e-005	-2.39553e-005	0	
-2.71436e-005	-2.68449e-005	0	
-2.95184e-005	-2.96658e-005	0	
-3.17738e-005	-3.24215e-005	0	
-3.39202e-005	-3.51159e-005	0	
-3.59664e-005	-3.77533e-005	0	
-3.79206e-005	-4.03375e-005	0	
-3.97898e-005	-4.28723e-005	0	
-4.15802e-005	-4.53609e-005	0	
-4.32974e-005	-4.78064e-005	0	
-4.49462e-005	-5.02113e-005	0	
-4.65313e-005	-5.25778e-005	0	
-4.80564e-005	-5.49078e-005	0	
-4.95253e-005	-5.72029e-005	0	
-5.09413e-005	-5.94644e-005	0	
-5.23072e-005	-6.16935e-005	0	
-5.36258e-005	-6.3891e-005	0	
-5.48994e-005	-6.60576e-005	0	
-5.61303e-005	-6.81936e-005	0	
-5.73203e-005	-7.02996e-005	0	
-5.84713e-005	-7.23754e-005	0	
-5.95848e-005	-7.44213e-005	0	
-6.06621e-005	-7.6437e-005	0	
-6.17044e-005	-7.84223e-005	0	
-6.27126e-005	-8.03768e-005	0	
-6.36875e-005	-8.23001e-005	0	
-6.46297e-005	-8.41916e-005	0	
-6.55397e-005	-8.60506e-005	0	
-6.64177e-005	-8.78763e-005	0	
-6.72637e-005	-8.9668e-005	0	
-6.80777e-005	-9.14248e-005	0	
-6.88595e-005	-9.31457e-005	0	
-6.96085e-005	-9.48298e-005	0	
-7.03241e-005	-9.64759e-005	0	
-7.10055e-005	-9.80831e-005	0	
-7.16517e-005	-9.96501e-005	0	
-7.22614e-005	-0.000101176	0	
-7.28333e-005	-0.000102659	0	
-7.33658e-005	-0.000104099	0	
-7.38572e-005	-0.000105494	0	
-7.43054e-005	-0.000106843	0	
-7.47084e-005	-0.000108146	0	
-7.50638e-005	-0.000109399	0	
-7.53691e-005	-0.000110604	0	
-7.56214e-005	-0.000111758	0	
-7.5818e-005	-0.000112861	0	
-7.59555e-005	-0.000113911	0	
-7.60308e-005	-0.000114908	0	
-7.60404e-005	-0.000115851	0	
-7.59805e-005	-0.00011674	0	
-7.58474e-005	-0.000117572	0	
-7.5637e-005	-0.000118349	0	
-7.53452e-005	-0.00011907	0	
-7.49678e-005	-0.000119735	0	
-7.45004e-005	-0.000120342	0	
-7.39386e-005	-0.000120894	0	
-7.32779e-005	-0.000121389	0	
-7.25138e-005	-0.000121828	0	
-7.16419e-005	-0.000122213	0	
-7.06577e-005	-0.000122544	0	
-6.95569e-005	-0.000122821	0	
-6.8335e-005	-0.000123048	0	
-6.69882e-005	-0.000123224	0	
-6.55126e-005	-0.000123352	0	
-6.39049e-005	-0.000123434	0	
-6.21617e-005	-0.000123473	0	
-6.02806e-005	-0.00012347	0	
-5.82594e-005	-0.000123429	0	
-5.60963e-005	-0.000123353	0	
-5.37904e-005	-0.000123246	0	
-5.13413e-005	-0.000123109	0	
-4.87497e-005	-0.000122949	0	
-4.60168e-005	-0.000122767	0	
-4.31451e-005	-0.000122569	0	
-4.01378e-005	-0.000122357	0	
-3.69994e-005	-0.000122137	0	
-3.37355e-005	-0.000121912	0	
-3.03528e-005	-0.000121687	0	
-2.68592e-005	-0.000121464	0	
-2.32636e-005	-0.000121249	0	
-1.95764e-005	-0.000121044	0	
-1.58091e-005	-0.000120853	0	
-1.1974e-005	-0.000120678	0	
-8.08464e-006	-0.000120522	0	
-4.15522e-006	-0.000120388	0	
-2.00619e-007	-0.000120276	0	
3.76403e-006	-0.000120188	0	
7.72366e-006	-0.000120124	0	
1.16637e-005	-0.000120084	0	
1.55705e-005	-0.000120066	0	
1.94318e-005	-0.000120068	0	
2.32365e-005	-0.000120084	0	
2.69734e-005	-0.000120104	0	
-1.73867e-017	-5.59428e-017	0	
-2.85765e-006	-2.55235e-006	0	
-5.92146e-006	-5.23933e-006	0	
-9.06861e-006	-8.05597e-006	0	
-1.2193e-005	-1.09646e-005	0	
-1.52264e-005	-1.39186e-005	0	
-1.81343e-005	-1.68787e-005	0	
-2.09048e-005	-1.98176e-005	0	
-2.35377e-005	-2.27189e-005	0	
-2.6039e-005	-2.55736e-005	0	
-2.84167e-005	-2.83776e-005	0	
-3.06794e-005	-3.11299e-005	0	
-3.28357e-005	-3.38312e-005	0	
-3.48935e-005	-3.64832e-005	0	
-3.686e-005	-3.90879e-005	0	
-3.87418e-005	-4.16477e-005	0	
-4.05448e-005	-4.41648e-005	0	
-4.22746e-005	-4.66412e-005	0	
-4.39358e-005	-4.9079e-005	0	
-4.5533e-005	-5.148e-005	0	
-4.70702e-005	-5.38456e-005	0	
-4.85509e-005	-5.61772e-005	0	
-4.99784e-005	-5.84761e-005	0	
-5.13558e-005	-6.0743e-005	0	
-5.26858e-005	-6.29788e-005	0	
-5.39708e-005	-6.51842e-005	0	
-5.52131e-005	-6.73594e-005	0	
-5.64146e-005	-6.95048e-005	0	
-5.75771e-005	-7.16206e-005	0	
-5.87022e-005	-7.37068e-005	0	
-5.97913e-005	-7.57633e-005	0	
-6.08456e-005	-7.77899e-005	0	
-6.18661e-005	-7.97862e-005	0	
-6.28535e-005	-8.17519e-005	0	
-6.38086e-005	-8.36864e-005	0	
-6.47318e-005	-8.55892e-005	0	
-6.56234e-005	-8.74596e-005	0	
-6.64835e-005	-8.92968e-005	0	
-6.7312e-005	-9.11001e-005	0	
-6.81086e-005	-9.28686e-005	0	
-6.8873e-005	-9.46014e-005	0	
-6.96045e-005	-9.62976e-005	0	
-7.03023e-005	-9.7956e-005	0	
-7.09654e-005	-9.95758e-005	0	
-7.15926e-005	-0.000101156	0	
-7.21826e-005	-0.000102695	0	
-7.27337e-005	-0.000104192	0	
-7.32442e-005	-0.000105647	0	
-7.37123e-005	-0.000107057	0	
-7.41356e-005	-0.000108422	0	
-7.45119e-005	-0.00010974	0	
-7.48386e-005	-0.000111012	0	
-7.51129e-005	-0.000112235	0	
-7.5332e-005	-0.000113408	0	
-7.54926e-005	-0.000114532	0	
-7.55915e-005	-0.000115604	0	
-7.5625e-005	-0.000116624	0	
-7.55895e-005	-0.000117592	0	
-7.54812e-005	-0.000118506	0	
-7.52959e-005	-0.000119366	0	
-7.50295e-005	-0.000120172	0	
-7.46777e-005	-0.000120924	0	
-7.42361e-005	-0.00012162	0	
-7.37001e-005	-0.000122262	0	
-7.30652e-005	-0.000122849	0	
-7.23269e-005	-0.000123382	0	
-7.14806e-005	-0.000123862	0	
-7.05217e-005	-0.000124288	0	
-6.94457e-005	-0.000124661	0	
-6.82482e-005	-0.000124984	0	
-6.69251e-005	-0.000125257	0	
-6.54725e-005	-0.000125482	0	
-6.38868e-005	-0.00012566	0	
-6.21647e-005	-0.000125794	0	
-6.03035e-005	-0.000125885	0	
-5.83007e-005	-0.000125937	0	
-5.61547e-005	-0.000125952	0	
-5.38641e-005	-0.000125933	0	
-5.14287e-005	-0.000125883	0	
-4.88488e-005	-0.000125805	0	
-4.61257e-005	-0.000125703	0	
-4.32615e-005	-0.00012558	0	
-4.02596e-005	-0.000125441	0	
-3.71243e-005	-0.000125288	0	
-3.38611e-005	-0.000125127	0	
-3.04766e-005	-0.000124959	0	
-2.69787e-005	-0.000124791	0	
-2.33765e-005	-0.000124624	0	
-1.96803e-005	-0.000124463	0	
-1.59015e-005	-0.000124311	0	
-1.20528e-005	-0.000124171	0	
-8.14772e-006	-0.000124046	0	
-4.20071e-006	-0.000123938	0	
-2.26925e-007	-0.000123849	0	
3.75804e-006	-0.000123782	0	
7.73847e-006	-0.000123736	0	
1.16988e-005	-0.000123713	0	
1.56236e-005	-0.00012371	0	
1.94979e-005	-0.000123727	0	
2.33066e-005	-0.000123757	0	
2.70327e-005	-0.000123792	0	
-1.66068e-017	-5.36092e-017	0	
-2.69936e-006	-2.43681e-006	0	
-5.56428e-006	-4.98027e-006	0	
-8.51532e-006	-7.63377e-006	0	
-1.1475e-005	-1.03787e-005	0	
-1.43841e-005	-1.31851e-005	0	
-1.72047e-005	-1.60225e-005	0	
-1.99172e-005	-1.88656e-005	0	
-2.25137e-005	-2.16958e-005	0	
-2.49936e-005	-2.45007e-005	0	
-2.73602e-005	-2.72726e-005	0	
-2.9619e-005	-3.0007e-005	0	
-3.17762e-005	-3.27018e-005	0	
-3.38381e-005	-3.53563e-005	0	
-3.58108e-005	-3.79708e-005	0	
-3.77003e-005	-4.05461e-005	0	
-3.95119e-005	-4.30832e-005	0	
-4.12509e-005	-4.55834e-005	0	
-4.29217e-005	-4.80479e-005	0	
-4.45287e-005	-5.0478e-005	0	
-4.60757e-005	-5.28747e-005	0	
-4.75664e-005	-5.5239e-005	0	
-4.9004e-005	-5.75719e-005	0	
-5.03916e-005	-5.98741e-005	0	
-5.17318e-005	-6.21462e-005	0	
-5.30271e-005	-6.43887e-005	0	
-5.42797e-005	-6.66019e-005	0	
-5.54917e-005	-6.87862e-005	0	
-5.66649e-005	-7.09415e-005	0	
-5.78009e-005	-7.30679e-005	0	
-5.8901e-005	-7.51654e-005	0	
-5.99666e-005	-7.72338e-005	0	
-6.09986e-005	-7.92727e-005	0	
-6.19979e-005	-8.12817e-005	0	
-6.29652e-005	-8.32606e-005	0	
-6.39009e-005	-8.52085e-005	0	
-6.48054e-005	-8.71251e-005	0	
-6.56787e-005	-8.90096e-005	0	
-6.6521e-005	-9.08614e-005	0	
-6.73318e-005	-9.26795e-005	0	
-6.81109e-005	-9.44632e-005	0	
-6.88576e-005	-9.62115e-005	0	
-6.95711e-005	-9.79235e-005	0	
-7.02504e-005	-9.95984e-005	0	
-7.08943e-005	-0.000101235	0	
-7.15016e-005	-0.000102832	0	
-7.20706e-005	-0.00010439	0	
-7.25997e-005	-0.000105906	0	
-7.30868e-005	-0.000107379	0	
-7.35298e-005	-0.000108809	0	
-7.39263e-005	-0.000110195	0	
-7.42739e-005	-0.000111535	0	
-7.45696e-005	-0.000112829	0	
-7.48107e-005	-0.000114076	0	
-7.49939e-005	-0.000115274	0	