# vtk DataFile Version 4.1
vtk output
ASCII
DATASET UNSTRUCTURED_GRID

POINTS	30401	float
0	0	0	
0	1	0	
0	2	0	
0	3	0	
0	4	0	
0	5	0	
0	6	0	
0	7	0	
0	8	0	
0	9	0	
0	10	0	
0	11	0	
0	12	0	
0	13	0	
0	14	0	
0	15	0	
0	16	0	
0	17	0	
0	18	0	
0	19	0	
0	20	0	
0	21	0	
0	22	0	
0	23	0	
0	24	0	
0	25	0	
0	26	0	
0	27	0	
0	28	0	
0	29	0	
0	30	0	
0	31	0	
0	32	0	
0	33	0	
0	34	0	
0	35	0	
0	36	0	
0	37	0	
0	38	0	
0	39	0	
0	40	0	
0	41	0	
0	42	0	
0	43	0	
0	44	0	
0	45	0	
0	46	0	
0	47	0	
0	48	0	
0	49	0	
0	50	0	
0	51	0	
0	52	0	
0	53	0	
0	54	0	
0	55	0	
0	56	0	
0	57	0	
0	58	0	
0	59	0	
0	60	0	
0	61	0	
0	62	0	
0	63	0	
0	64	0	
0	65	0	
0	66	0	
0	67	0	
0	68	0	
0	69	0	
0	70	0	
0	71	0	
0	72	0	
0	73	0	
0	74	0	
0	75	0	
0	76	0	
0	77	0	
0	78	0	
0	79	0	
0	80	0	
0	81	0	
0	82	0	
0	83	0	
0	84	0	
0	85	0	
0	86	0	
0	87	0	
0	88	0	
0	89	0	
0	90	0	
0	91	0	
0	92	0	
0	93	0	
0	94	0	
0	95	0	
0	96	0	
0	97	0	
0	98	0	
0	99	0	
0	100	0	
1	0	0	
1	1	0	
1	2	0	
1	3	0	
1	4	0	
1	5	0	
1	6	0	
1	7	0	
1	8	0	
1	9	0	
1	10	0	
1	11	0	
1	12	0	
1	13	0	
1	14	0	
1	15	0	
1	16	0	
1	17	0	
1	18	0	
1	19	0	
1	20	0	
1	21	0	
1	22	0	
1	23	0	
1	24	0	
1	25	0	
1	26	0	
1	27	0	
1	28	0	
1	29	0	
1	30	0	
1	31	0	
1	32	0	
1	33	0	
1	34	0	
1	35	0	
1	36	0	
1	37	0	
1	38	0	
1	39	0	
1	40	0	
1	41	0	
1	42	0	
1	43	0	
1	44	0	
1	45	0	
1	46	0	
1	47	0	
1	48	0	
1	49	0	
1	50	0	
1	51	0	
1	52	0	
1	53	0	
1	54	0	
1	55	0	
1	56	0	
1	57	0	
1	58	0	
1	59	0	
1	60	0	
1	61	0	
1	62	0	
1	63	0	
1	64	0	
1	65	0	
1	66	0	
1	67	0	
1	68	0	
1	69	0	
1	70	0	
1	71	0	
1	72	0	
1	73	0	
1	74	0	
1	75	0	
1	76	0	
1	77	0	
1	78	0	
1	79	0	
1	80	0	
1	81	0	
1	82	0	
1	83	0	
1	84	0	
1	85	0	
1	86	0	
1	87	0	
1	88	0	
1	89	0	
1	90	0	
1	91	0	
1	92	0	
1	93	0	
1	94	0	
1	95	0	
1	96	0	
1	97	0	
1	98	0	
1	99	0	
1	100	0	
2	0	0	
2	1	0	
2	2	0	
2	3	0	
2	4	0	
2	5	0	
2	6	0	
2	7	0	
2	8	0	
2	9	0	
2	10	0	
2	11	0	
2	12	0	
2	13	0	
2	14	0	
2	15	0	
2	16	0	
2	17	0	
2	18	0	
2	19	0	
2	20	0	
2	21	0	
2	22	0	
2	23	0	
2	24	0	
2	25	0	
2	26	0	
2	27	0	
2	28	0	
2	29	0	
2	30	0	
2	31	0	
2	32	0	
2	33	0	
2	34	0	
2	35	0	
2	36	0	
2	37	0	
2	38	0	
2	39	0	
2	40	0	
2	41	0	
2	42	0	
2	43	0	
2	44	0	
2	45	0	
2	46	0	
2	47	0	
2	48	0	
2	49	0	
2	50	0	
2	51	0	
2	52	0	
2	53	0	
2	54	0	
2	55	0	
2	56	0	
2	57	0	
2	58	0	
2	59	0	
2	60	0	
2	61	0	
2	62	0	
2	63	0	
2	64	0	
2	65	0	
2	66	0	
2	67	0	
2	68	0	
2	69	0	
2	70	0	
2	71	0	
2	72	0	
2	73	0	
2	74	0	
2	75	0	
2	76	0	
2	77	0	
2	78	0	
2	79	0	
2	80	0	
2	81	0	
2	82	0	
2	83	0	
2	84	0	
2	85	0	
2	86	0	
2	87	0	
2	88	0	
2	89	0	
2	90	0	
2	91	0	
2	92	0	
2	93	0	
2	94	0	
2	95	0	
2	96	0	
2	97	0	
2	98	0	
2	99	0	
2	100	0	
3	0	0	
3	1	0	
3	2	0	
3	3	0	
3	4	0	
3	5	0	
3	6	0	
3	7	0	
3	8	0	
3	9	0	
3	10	0	
3	11	0	
3	12	0	
3	13	0	
3	14	0	
3	15	0	
3	16	0	
3	17	0	
3	18	0	
3	19	0	
3	20	0	
3	21	0	
3	22	0	
3	23	0	
3	24	0	
3	25	0	
3	26	0	
3	27	0	
3	28	0	
3	29	0	
3	30	0	
3	31	0	
3	32	0	
3	33	0	
3	34	0	
3	35	0	
3	36	0	
3	37	0	
3	38	0	
3	39	0	
3	40	0	
3	41	0	
3	42	0	
3	43	0	
3	44	0	
3	45	0	
3	46	0	
3	47	0	
3	48	0	
3	49	0	
3	50	0	
3	51	0	
3	52	0	
3	53	0	
3	54	0	
3	55	0	
3	56	0	
3	57	0	
3	58	0	
3	59	0	
3	60	0	
3	61	0	
3	62	0	
3	63	0	
3	64	0	
3	65	0	
3	66	0	
3	67	0	
3	68	0	
3	69	0	
3	70	0	
3	71	0	
3	72	0	
3	73	0	
3	74	0	
3	75	0	
3	76	0	
3	77	0	
3	78	0	
3	79	0	
3	80	0	
3	81	0	
3	82	0	
3	83	0	
3	84	0	
3	85	0	
3	86	0	
3	87	0	
3	88	0	
3	89	0	
3	90	0	
3	91	0	
3	92	0	
3	93	0	
3	94	0	
3	95	0	
3	96	0	
3	97	0	
3	98	0	
3	99	0	
3	100	0	
4	0	0	
4	1	0	
4	2	0	
4	3	0	
4	4	0	
4	5	0	
4	6	0	
4	7	0	
4	8	0	
4	9	0	
4	10	0	
4	11	0	
4	12	0	
4	13	0	
4	14	0	
4	15	0	
4	16	0	
4	17	0	
4	18	0	
4	19	0	
4	20	0	
4	21	0	
4	22	0	
4	23	0	
4	24	0	
4	25	0	
4	26	0	
4	27	0	
4	28	0	
4	29	0	
4	30	0	
4	31	0	
4	32	0	
4	33	0	
4	34	0	
4	35	0	
4	36	0	
4	37	0	
4	38	0	
4	39	0	
4	40	0	
4	41	0	
4	42	0	
4	43	0	
4	44	0	
4	45	0	
4	46	0	
4	47	0	
4	48	0	
4	49	0	
4	50	0	
4	51	0	
4	52	0	
4	53	0	
4	54	0	
4	55	0	
4	56	0	
4	57	0	
4	58	0	
4	59	0	
4	60	0	
4	61	0	
4	62	0	
4	63	0	
4	64	0	
4	65	0	
4	66	0	
4	67	0	
4	68	0	
4	69	0	
4	70	0	
4	71	0	
4	72	0	
4	73	0	
4	74	0	
4	75	0	
4	76	0	
4	77	0	
4	78	0	
4	79	0	
4	80	0	
4	81	0	
4	82	0	
4	83	0	
4	84	0	
4	85	0	
4	86	0	
4	87	0	
4	88	0	
4	89	0	
4	90	0	
4	91	0	
4	92	0	
4	93	0	
4	94	0	
4	95	0	
4	96	0	
4	97	0	
4	98	0	
4	99	0	
4	100	0	
5	0	0	
5	1	0	
5	2	0	
5	3	0	
5	4	0	
5	5	0	
5	6	0	
5	7	0	
5	8	0	
5	9	0	
5	10	0	
5	11	0	
5	12	0	
5	13	0	
5	14	0	
5	15	0	
5	16	0	
5	17	0	
5	18	0	
5	19	0	
5	20	0	
5	21	0	
5	22	0	
5	23	0	
5	24	0	
5	25	0	
5	26	0	
5	27	0	
5	28	0	
5	29	0	
5	30	0	
5	31	0	
5	32	0	
5	33	0	
5	34	0	
5	35	0	
5	36	0	
5	37	0	
5	38	0	
5	39	0	
5	40	0	
5	41	0	
5	42	0	
5	43	0	
5	44	0	
5	45	0	
5	46	0	
5	47	0	
5	48	0	
5	49	0	
5	50	0	
5	51	0	
5	52	0	
5	53	0	
5	54	0	
5	55	0	
5	56	0	
5	57	0	
5	58	0	
5	59	0	
5	60	0	
5	61	0	
5	62	0	
5	63	0	
5	64	0	
5	65	0	
5	66	0	
5	67	0	
5	68	0	
5	69	0	
5	70	0	
5	71	0	
5	72	0	
5	73	0	
5	74	0	
5	75	0	
5	76	0	
5	77	0	
5	78	0	
5	79	0	
5	80	0	
5	81	0	
5	82	0	
5	83	0	
5	84	0	
5	85	0	
5	86	0	
5	87	0	
5	88	0	
5	89	0	
5	90	0	
5	91	0	
5	92	0	
5	93	0	
5	94	0	
5	95	0	
5	96	0	
5	97	0	
5	98	0	
5	99	0	
5	100	0	
6	0	0	
6	1	0	
6	2	0	
6	3	0	
6	4	0	
6	5	0	
6	6	0	
6	7	0	
6	8	0	
6	9	0	
6	10	0	
6	11	0	
6	12	0	
6	13	0	
6	14	0	
6	15	0	
6	16	0	
6	17	0	
6	18	0	
6	19	0	
6	20	0	
6	21	0	
6	22	0	
6	23	0	
6	24	0	
6	25	0	
6	26	0	
6	27	0	
6	28	0	
6	29	0	
6	30	0	
6	31	0	
6	32	0	
6	33	0	
6	34	0	
6	35	0	
6	36	0	
6	37	0	
6	38	0	
6	39	0	
6	40	0	
6	41	0	
6	42	0	
6	43	0	
6	44	0	
6	45	0	
6	46	0	
6	47	0	
6	48	0	
6	49	0	
6	50	0	
6	51	0	
6	52	0	
6	53	0	
6	54	0	
6	55	0	
6	56	0	
6	57	0	
6	58	0	
6	59	0	
6	60	0	
6	61	0	
6	62	0	
6	63	0	
6	64	0	
6	65	0	
6	66	0	
6	67	0	
6	68	0	
6	69	0	
6	70	0	
6	71	0	
6	72	0	
6	73	0	
6	74	0	
6	75	0	
6	76	0	
6	77	0	
6	78	0	
6	79	0	
6	80	0	
6	81	0	
6	82	0	
6	83	0	
6	84	0	
6	85	0	
6	86	0	
6	87	0	
6	88	0	
6	89	0	
6	90	0	
6	91	0	
6	92	0	
6	93	0	
6	94	0	
6	95	0	
6	96	0	
6	97	0	
6	98	0	
6	99	0	
6	100	0	
7	0	0	
7	1	0	
7	2	0	
7	3	0	
7	4	0	
7	5	0	
7	6	0	
7	7	0	
7	8	0	
7	9	0	
7	10	0	
7	11	0	
7	12	0	
7	13	0	
7	14	0	
7	15	0	
7	16	0	
7	17	0	
7	18	0	
7	19	0	
7	20	0	
7	21	0	
7	22	0	
7	23	0	
7	24	0	
7	25	0	
7	26	0	
7	27	0	
7	28	0	
7	29	0	
7	30	0	
7	31	0	
7	32	0	
7	33	0	
7	34	0	
7	35	0	
7	36	0	
7	37	0	
7	38	0	
7	39	0	
7	40	0	
7	41	0	
7	42	0	
7	43	0	
7	44	0	
7	45	0	
7	46	0	
7	47	0	
7	48	0	
7	49	0	
7	50	0	
7	51	0	
7	52	0	
7	53	0	
7	54	0	
7	55	0	
7	56	0	
7	57	0	
7	58	0	
7	59	0	
7	60	0	
7	61	0	
7	62	0	
7	63	0	
7	64	0	
7	65	0	
7	66	0	
7	67	0	
7	68	0	
7	69	0	
7	70	0	
7	71	0	
7	72	0	
7	73	0	
7	74	0	
7	75	0	
7	76	0	
7	77	0	
7	78	0	
7	79	0	
7	80	0	
7	81	0	
7	82	0	
7	83	0	
7	84	0	
7	85	0	
7	86	0	
7	87	0	
7	88	0	
7	89	0	
7	90	0	
7	91	0	
7	92	0	
7	93	0	
7	94	0	
7	95	0	
7	96	0	
7	97	0	
7	98	0	
7	99	0	
7	100	0	
8	0	0	
8	1	0	
8	2	0	
8	3	0	
8	4	0	
8	5	0	
8	6	0	
8	7	0	
8	8	0	
8	9	0	
8	10	0	
8	11	0	
8	12	0	
8	13	0	
8	14	0	
8	15	0	
8	16	0	
8	17	0	
8	18	0	
8	19	0	
8	20	0	
8	21	0	
8	22	0	
8	23	0	
8	24	0	
8	25	0	
8	26	0	
8	27	0	
8	28	0	
8	29	0	
8	30	0	
8	31	0	
8	32	0	
8	33	0	
8	34	0	
8	35	0	
8	36	0	
8	37	0	
8	38	0	
8	39	0	
8	40	0	
8	41	0	
8	42	0	
8	43	0	
8	44	0	
8	45	0	
8	46	0	
8	47	0	
8	48	0	
8	49	0	
8	50	0	
8	51	0	
8	52	0	
8	53	0	
8	54	0	
8	55	0	
8	56	0	
8	57	0	
8	58	0	
8	59	0	
8	60	0	
8	61	0	
8	62	0	
8	63	0	
8	64	0	
8	65	0	
8	66	0	
8	67	0	
8	68	0	
8	69	0	
8	70	0	
8	71	0	
8	72	0	
8	73	0	
8	74	0	
8	75	0	
8	76	0	
8	77	0	
8	78	0	
8	79	0	
8	80	0	
8	81	0	
8	82	0	
8	83	0	
8	84	0	
8	85	0	
8	86	0	
8	87	0	
8	88	0	
8	89	0	
8	90	0	
8	91	0	
8	92	0	
8	93	0	
8	94	0	
8	95	0	
8	96	0	
8	97	0	
8	98	0	
8	99	0	
8	100	0	
9	0	0	
9	1	0	
9	2	0	
9	3	0	
9	4	0	
9	5	0	
9	6	0	
9	7	0	
9	8	0	
9	9	0	
9	10	0	
9	11	0	
9	12	0	
9	13	0	
9	14	0	
9	15	0	
9	16	0	
9	17	0	
9	18	0	
9	19	0	
9	20	0	
9	21	0	
9	22	0	
9	23	0	
9	24	0	
9	25	0	
9	26	0	
9	27	0	
9	28	0	
9	29	0	
9	30	0	
9	31	0	
9	32	0	
9	33	0	
9	34	0	
9	35	0	
9	36	0	
9	37	0	
9	38	0	
9	39	0	
9	40	0	
9	41	0	
9	42	0	
9	43	0	
9	44	0	
9	45	0	
9	46	0	
9	47	0	
9	48	0	
9	49	0	
9	50	0	
9	51	0	
9	52	0	
9	53	0	
9	54	0	
9	55	0	
9	56	0	
9	57	0	
9	58	0	
9	59	0	
9	60	0	
9	61	0	
9	62	0	
9	63	0	
9	64	0	
9	65	0	
9	66	0	
9	67	0	
9	68	0	
9	69	0	
9	70	0	
9	71	0	
9	72	0	
9	73	0	
9	74	0	
9	75	0	
9	76	0	
9	77	0	
9	78	0	
9	79	0	
9	80	0	
9	81	0	
9	82	0	
9	83	0	
9	84	0	
9	85	0	
9	86	0	
9	87	0	
9	88	0	
9	89	0	
9	90	0	
9	91	0	
9	92	0	
9	93	0	
9	94	0	
9	95	0	
9	96	0	
9	97	0	
9	98	0	
9	99	0	
9	100	0	
10	0	0	
10	1	0	
10	2	0	
10	3	0	
10	4	0	
10	5	0	
10	6	0	
10	7	0	
10	8	0	
10	9	0	
10	10	0	
10	11	0	
10	12	0	
10	13	0	
10	14	0	
10	15	0	
10	16	0	
10	17	0	
10	18	0	
10	19	0	
10	20	0	
10	21	0	
10	22	0	
10	23	0	
10	24	0	
10	25	0	
10	26	0	
10	27	0	
10	28	0	
10	29	0	
10	30	0	
10	31	0	
10	32	0	
10	33	0	
10	34	0	
10	35	0	
10	36	0	
10	37	0	
10	38	0	
10	39	0	
10	40	0	
10	41	0	
10	42	0	
10	43	0	
10	44	0	
10	45	0	
10	46	0	
10	47	0	
10	48	0	
10	49	0	
10	50	0	
10	51	0	
10	52	0	
10	53	0	
10	54	0	
10	55	0	
10	56	0	
10	57	0	
10	58	0	
10	59	0	
10	60	0	
10	61	0	
10	62	0	
10	63	0	
10	64	0	
10	65	0	
10	66	0	
10	67	0	
10	68	0	
10	69	0	
10	70	0	
10	71	0	
10	72	0	
10	73	0	
10	74	0	
10	75	0	
10	76	0	
10	77	0	
10	78	0	
10	79	0	
10	80	0	
10	81	0	
10	82	0	
10	83	0	
10	84	0	
10	85	0	
10	86	0	
10	87	0	
10	88	0	
10	89	0	
10	90	0	
10	91	0	
10	92	0	
10	93	0	
10	94	0	
10	95	0	
10	96	0	
10	97	0	
10	98	0	
10	99	0	
10	100	0	
11	0	0	
11	1	0	
11	2	0	
11	3	0	
11	4	0	
11	5	0	
11	6	0	
11	7	0	
11	8	0	
11	9	0	
11	10	0	
11	11	0	
11	12	0	
11	13	0	
11	14	0	
11	15	0	
11	16	0	
11	17	0	
11	18	0	
11	19	0	
11	20	0	
11	21	0	
11	22	0	
11	23	0	
11	24	0	
11	25	0	
11	26	0	
11	27	0	
11	28	0	
11	29	0	
11	30	0	
11	31	0	
11	32	0	
11	33	0	
11	34	0	
11	35	0	
11	36	0	
11	37	0	
11	38	0	
11	39	0	
11	40	0	
11	41	0	
11	42	0	
11	43	0	
11	44	0	
11	45	0	
11	46	0	
11	47	0	
11	48	0	
11	49	0	
11	50	0	
11	51	0	
11	52	0	
11	53	0	
11	54	0	
11	55	0	
11	56	0	
11	57	0	
11	58	0	
11	59	0	
11	60	0	
11	61	0	
11	62	0	
11	63	0	
11	64	0	
11	65	0	
11	66	0	
11	67	0	
11	68	0	
11	69	0	
11	70	0	
11	71	0	
11	72	0	
11	73	0	
11	74	0	
11	75	0	
11	76	0	
11	77	0	
11	78	0	
11	79	0	
11	80	0	
11	81	0	
11	82	0	
11	83	0	
11	84	0	
11	85	0	
11	86	0	
11	87	0	
11	88	0	
11	89	0	
11	90	0	
11	91	0	
11	92	0	
11	93	0	
11	94	0	
11	95	0	
11	96	0	
11	97	0	
11	98	0	
11	99	0	
11	100	0	
12	0	0	
12	1	0	
12	2	0	
12	3	0	
12	4	0	
12	5	0	
12	6	0	
12	7	0	
12	8	0	
12	9	0	
12	10	0	
12	11	0	
12	12	0	
12	13	0	
[...]
POINT_DATA	30401
VECTORS d float
-3.00274e-017	-5.41226e-017	0	
-1.60154e-006	-1.64667e-006	0	
-2.73674e-006	-2.60856e-006	0	
-3.69351e-006	-3.36393e-006	0	
-4.51467e-006	-4.00474e-006	0	
-5.22671e-006	-4.56376e-006	0	
-5.84339e-006	-5.07167e-006	0	
-6.37737e-006	-5.54273e-006	0	
-6.84003e-006	-5.98916e-006	0	
-7.24378e-006	-6.41755e-006	0	
-7.59595e-006	-6.83113e-006	0	
-7.90269e-006	-7.23259e-006	0	
-8.16863e-006	-7.62174e-006	0	
-8.39515e-006	-7.99872e-006	0	
-8.58324e-006	-8.36457e-006	0	
-8.73366e-006	-8.71995e-006	0	
-8.84562e-006	-9.06586e-006	0	
-8.91995e-006	-9.40449e-006	0	
-8.95774e-006	-9.73591e-006	0	
-8.95727e-006	-1.00622e-005	0	
-8.92238e-006	-1.03844e-005	0	
-8.85031e-006	-1.07034e-005	0	
-8.74385e-006	-1.10226e-005	0	
-8.60328e-006	-1.13418e-005	0	
-8.42765e-006	-1.1665e-005	0	
-8.22149e-006	-1.19946e-005	0	
-7.98374e-006	-1.23323e-005	0	
-7.7192e-006	-1.26817e-005	0	
-7.43006e-006	-1.30443e-005	0	
-7.12098e-006	-1.34223e-005	0	
-6.79622e-006	-1.38164e-005	0	
-6.46053e-006	-1.42262e-005	0	
-6.11634e-006	-1.4652e-005	0	
-5.76718e-006	-1.50927e-005	0	
-5.41553e-006	-1.55475e-005	0	
-5.06593e-006	-1.60142e-005	0	
-4.71837e-006	-1.64919e-005	0	
-4.3761e-006	-1.6978e-005	0	
-4.03802e-006	-1.74706e-005	0	
-3.70898e-006	-1.79693e-005	0	
-3.38703e-006	-1.84717e-005	0	
-3.0736e-006	-1.89775e-005	0	
-2.76958e-006	-1.94833e-005	0	
-2.47448e-006	-1.999e-005	0	
-2.19113e-006	-2.0496e-005	0	
-1.91512e-006	-2.09995e-005	0	
-1.64907e-006	-2.14997e-005	0	
-1.38962e-006	-2.19955e-005	0	
-1.13879e-006	-2.24879e-005	0	
-8.93218e-007	-2.29754e-005	0	
-6.52791e-007	-2.34611e-005	0	
-4.19883e-007	-2.39433e-005	0	
-1.92987e-007	-2.44235e-005	0	
1.99751e-008	-2.49026e-005	0	
2.17789e-007	-2.53768e-005	0	
3.9808e-007	-2.58474e-005	0	
5.54036e-007	-2.63098e-005	0	
6.8956e-007	-2.67587e-005	0	
8.03169e-007	-2.71948e-005	0	
8.94939e-007	-2.76101e-005	0	
9.75265e-007	-2.80047e-005	0	
1.04068e-006	-2.83798e-005	0	
1.09867e-006	-2.8731e-005	0	
1.15319e-006	-2.90653e-005	0	
1.19998e-006	-2.93797e-005	0	
1.24738e-006	-2.96767e-005	0	
1.28759e-006	-2.99591e-005	0	
1.32606e-006	-3.02244e-005	0	
1.36091e-006	-3.04753e-005	0	
1.39433e-006	-3.07087e-005	0	
1.42841e-006	-3.09253e-005	0	
1.46654e-006	-3.11242e-005	0	
1.5126e-006	-3.13061e-005	0	
1.57007e-006	-3.1471e-005	0	
1.64279e-006	-3.16225e-005	0	
1.7299e-006	-3.17587e-005	0	
1.83637e-006	-3.18823e-005	0	
1.95537e-006	-3.19936e-005	0	
2.09154e-006	-3.20934e-005	0	
2.2384e-006	-3.2184e-005	0	
2.39679e-006	-3.22615e-005	0	
2.56404e-006	-3.23282e-005	0	
2.7367e-006	-3.23817e-005	0	
2.91523e-006	-3.24212e-005	0	
3.09824e-006	-3.24459e-005	0	
3.28843e-006	-3.24549e-005	0	
3.48715e-006	-3.24483e-005	0	
3.6991e-006	-3.24267e-005	0	
3.92632e-006	-3.23925e-005	0	
4.17384e-006	-3.23496e-005	0	
4.44121e-006	-3.23018e-005	0	
4.73126e-006	-3.22534e-005	0	
5.03905e-006	-3.22099e-005	0	
5.36187e-006	-3.21736e-005	0	
5.69273e-006	-3.21493e-005	0	
6.02285e-006	-3.21349e-005	0	
6.34876e-006	-3.21313e-005	0	
6.66255e-006	-3.21356e-005	0	
6.96522e-006	-3.21424e-005	0	
7.25591e-006	-3.21497e-005	0	
7.53651e-006	-3.21531e-005	0	
-9.0844e-018	-1.83738e-017	0	
-1.21878e-006	-9.24138e-007	0	
-2.37642e-006	-1.8181e-006	0	
-3.38614e-006	-2.63323e-006	0	
-4.24524e-006	-3.33966e-006	0	
-4.98569e-006	-3.97234e-006	0	
-5.62205e-006	-4.54788e-006	0	
-6.17017e-006	-5.08228e-006	0	
-6.64467e-006	-5.58395e-006	0	
-7.05654e-006	-6.06082e-006	0	
-7.41547e-006	-6.51801e-006	0	
-7.72874e-006	-6.95837e-006	0	
-7.99923e-006	-7.38466e-006	0	
-8.23044e-006	-7.79789e-006	0	
-8.42297e-006	-8.19975e-006	0	
-8.57631e-006	-8.59135e-006	0	
-8.69196e-006	-8.97377e-006	0	
-8.76924e-006	-9.3484e-006	0	
-8.80837e-006	-9.71576e-006	0	
-8.81141e-006	-1.0078e-005	0	
-8.77612e-006	-1.04347e-005	0	
-8.70605e-006	-1.07895e-005	0	
-8.59937e-006	-1.11416e-005	0	
-8.45729e-006	-1.14948e-005	0	
-8.28155e-006	-1.18496e-005	0	
-8.07138e-006	-1.2209e-005	0	
-7.83093e-006	-1.25747e-005	0	
-7.56185e-006	-1.29485e-005	0	
-7.26763e-006	-1.33321e-005	0	
-6.95312e-006	-1.37278e-005	0	
-6.62269e-006	-1.41352e-005	0	
-6.28084e-006	-1.45557e-005	0	
-5.93069e-006	-1.49881e-005	0	
-5.57611e-006	-1.54334e-005	0	
-5.21953e-006	-1.58893e-005	0	
-4.86512e-006	-1.63555e-005	0	
-4.51428e-006	-1.68306e-005	0	
-4.16828e-006	-1.73125e-005	0	
-3.8288e-006	-1.78006e-005	0	
-3.49661e-006	-1.8292e-005	0	
-3.17362e-006	-1.87885e-005	0	
-2.85939e-006	-1.92853e-005	0	
-2.55436e-006	-1.97841e-005	0	
-2.26055e-006	-2.02818e-005	0	
-1.97599e-006	-2.07797e-005	0	
-1.70231e-006	-2.12754e-005	0	
-1.43616e-006	-2.17681e-005	0	
-1.17963e-006	-2.22581e-005	0	
-9.29075e-007	-2.27438e-005	0	
-6.85409e-007	-2.32271e-005	0	
-4.4719e-007	-2.37057e-005	0	
-2.13706e-007	-2.41812e-005	0	
8.41135e-009	-2.46524e-005	0	
2.20941e-007	-2.51178e-005	0	
4.15946e-007	-2.55781e-005	0	
5.90216e-007	-2.60302e-005	0	
7.44397e-007	-2.64722e-005	0	
8.72661e-007	-2.69035e-005	0	
9.78374e-007	-2.73191e-005	0	
1.06601e-006	-2.77192e-005	0	
1.1344e-006	-2.81022e-005	0	
1.19339e-006	-2.8465e-005	0	
1.24403e-006	-2.88121e-005	0	
1.28752e-006	-2.91391e-005	0	
1.33101e-006	-2.94499e-005	0	
1.36804e-006	-2.97442e-005	0	
1.4038e-006	-3.00208e-005	0	
1.43512e-006	-3.02851e-005	0	
1.46336e-006	-3.05314e-005	0	
1.49049e-006	-3.07667e-005	0	
1.5183e-006	-3.09839e-005	0	
1.5502e-006	-3.11903e-005	0	
1.59074e-006	-3.13789e-005	0	
1.64237e-006	-3.15575e-005	0	
1.70876e-006	-3.17198e-005	0	
1.79177e-006	-3.18721e-005	0	
1.89018e-006	-3.20094e-005	0	
2.00651e-006	-3.21344e-005	0	
2.13519e-006	-3.22479e-005	0	
2.27747e-006	-3.23468e-005	0	
2.42952e-006	-3.24346e-005	0	
2.58983e-006	-3.25065e-005	0	
2.75652e-006	-3.25657e-005	0	
2.92805e-006	-3.26098e-005	0	
3.10517e-006	-3.26393e-005	0	
3.2887e-006	-3.26554e-005	0	
3.48248e-006	-3.26574e-005	0	
3.68865e-006	-3.26488e-005	0	
3.91324e-006	-3.26296e-005	0	
4.15747e-006	-3.26049e-005	0	
4.4249e-006	-3.25746e-005	0	
4.71434e-006	-3.25447e-005	0	
5.02431e-006	-3.25137e-005	0	
5.34965e-006	-3.24888e-005	0	
5.68218e-006	-3.24664e-005	0	
6.01711e-006	-3.24519e-005	0	
6.34364e-006	-3.24412e-005	0	
6.66168e-006	-3.24361e-005	0	
6.96462e-006	-3.24341e-005	0	
7.25613e-006	-3.24334e-005	0	
7.53827e-006	-3.24334e-005	0	
-5.85307e-018	-1.45919e-017	0	
-1.02452e-006	-6.87333e-007	0	
-2.11178e-006	-1.4319e-006	0	
-3.10846e-006	-2.17251e-006	0	
-3.98228e-006	-2.87072e-006	0	
-4.73864e-006	-3.52164e-006	0	
-5.39094e-006	-4.12955e-006	0	
-5.95358e-006	-4.69938e-006	0	
-6.43935e-006	-5.23797e-006	0	
-6.86123e-006	-5.75038e-006	0	
-7.22852e-006	-6.24041e-006	0	
-7.54704e-006	-6.7131e-006	0	
-7.82286e-006	-7.16978e-006	0	
-8.05709e-006	-7.61454e-006	0	
-8.25178e-006	-8.04774e-006	0	
-8.40802e-006	-8.47174e-006	0	
-8.52521e-006	-8.88705e-006	0	
-8.60415e-006	-9.29455e-006	0	
-8.64574e-006	-9.69595e-006	0	
-8.64863e-006	-1.00908e-005	0	
-8.61611e-006	-1.04819e-005	0	
-8.5455e-006	-1.08686e-005	0	
-8.43954e-006	-1.12537e-005	0	
-8.29801e-006	-1.16373e-005	0	
-8.12047e-006	-1.20215e-005	0	
-7.90994e-006	-1.24088e-005	0	
-7.66706e-006	-1.27998e-005	0	
-7.39508e-006	-1.31963e-005	0	
-7.09842e-006	-1.36002e-005	0	
-6.78006e-006	-1.40119e-005	0	
-6.44579e-006	-1.44339e-005	0	
-6.09901e-006	-1.48643e-005	0	
-5.74484e-006	-1.53058e-005	0	
-5.38525e-006	-1.5756e-005	0	
-5.02553e-006	-1.6216e-005	0	
-4.66673e-006	-1.66833e-005	0	
-4.3128e-006	-1.7158e-005	0	
-3.96433e-006	-1.76389e-005	0	
-3.62251e-006	-1.81233e-005	0	
-3.28876e-006	-1.86125e-005	0	
-2.96372e-006	-1.91025e-005	0	
-2.6483e-006	-1.95955e-005	0	
-2.34366e-006	-2.00875e-005	0	
-2.0484e-006	-2.05805e-005	0	
-1.76511e-006	-2.10719e-005	0	
-1.49028e-006	-2.1562e-005	0	
-1.2265e-006	-2.20494e-005	0	
-9.69513e-007	-2.25341e-005	0	
-7.21649e-007	-2.30158e-005	0	
-4.78835e-007	-2.34931e-005	0	
-2.41608e-007	-2.39667e-005	0	
-1.34692e-008	-2.44354e-005	0	
2.0841e-007	-2.48977e-005	0	
4.13845e-007	-2.53541e-005	0	
6.04314e-007	-2.58013e-005	0	
7.75364e-007	-2.62396e-005	0	
9.2111e-007	-2.66679e-005	0	
1.04513e-006	-2.70825e-005	0	
1.14579e-006	-2.74853e-005	0	
1.2238e-006	-2.78723e-005	0	
1.28876e-006	-2.8243e-005	0	
1.33902e-006	-2.85993e-005	0	
1.38114e-006	-2.89365e-005	0	
1.42111e-006	-2.92597e-005	0	
1.45357e-006	-2.95656e-005	0	
1.48755e-006	-2.9855e-005	0	
1.51541e-006	-3.01307e-005	0	
1.54148e-006	-3.03891e-005	0	
1.56461e-006	-3.06373e-005	0	
1.58637e-006	-3.08693e-005	0	
1.6099e-006	-3.10923e-005	0	
1.63839e-006	-3.12996e-005	0	
1.67427e-006	-3.14983e-005	0	
1.7221e-006	-3.16815e-005	0	
1.78361e-006	-3.18562e-005	0	
1.86015e-006	-3.20165e-005	0	
1.95466e-006	-3.21656e-005	0	
2.06222e-006	-3.23017e-005	0	
2.18602e-006	-3.24226e-005	0	
2.31957e-006	-3.25316e-005	0	
2.46392e-006	-3.2623e-005	0	
2.6163e-006	-3.27019e-005	0	
2.77467e-006	-3.27642e-005	0	
2.93945e-006	-3.2812e-005	0	
3.10972e-006	-3.28462e-005	0	
3.28874e-006	-3.2866e-005	0	
3.47704e-006	-3.28765e-005	0	
3.68146e-006	-3.28757e-005	0	
3.9028e-006	-3.28692e-005	0	
4.14673e-006	-3.28557e-005	0	
4.41269e-006	-3.28402e-005	0	
4.70215e-006	-3.28205e-005	0	
5.01213e-006	-3.28021e-005	0	
5.33643e-006	-3.27814e-005	0	
5.67093e-006	-3.27651e-005	0	
6.00383e-006	-3.27482e-005	0	
6.33494e-006	-3.27358e-005	0	
6.65237e-006	-3.27249e-005	0	
6.96061e-006	-3.27178e-005	0	
7.25371e-006	-3.27144e-005	0	
7.53765e-006	-3.27137e-005	0	
-5.72591e-018	-1.32514e-017	0	
-9.56403e-007	-6.03104e-007	0	
-1.95229e-006	-1.24175e-006	0	
-2.90064e-006	-1.90195e-006	0	
-3.75766e-006	-2.56037e-006	0	
-4.51336e-006	-3.19909e-006	0	
-5.17121e-006	-3.81174e-006	0	
-5.74159e-006	-4.39673e-006	0	
-6.23691e-006	-4.95588e-006	0	
-6.66681e-006	-5.49056e-006	0	
-7.04027e-006	-6.00526e-006	0	
-7.36469e-006	-6.5011e-006	0	
-7.64263e-006	-6.98386e-006	0	
-7.8789e-006	-7.45322e-006	0	
-8.07445e-006	-7.91409e-006	0	
-8.23065e-006	-8.36533e-006	0	
-8.34829e-006	-8.80973e-006	0	
-8.42795e-006	-9.24725e-006	0	
-8.46889e-006	-9.67852e-006	0	
-8.47382e-006	-1.01046e-005	0	
-8.44038e-006	-1.05261e-005	0	
-8.37166e-006	-1.09433e-005	0	
-8.2661e-006	-1.13585e-005	0	
-8.12444e-006	-1.17703e-005	0	
-7.9481e-006	-1.21828e-005	0	
-7.73673e-006	-1.2595e-005	0	
-7.493e-006	-1.30101e-005	0	
-7.22079e-006	-1.34282e-005	0	
-6.92147e-006	-1.38502e-005	0	
-6.60183e-006	-1.42794e-005	0	
-6.26412e-006	-1.47139e-005	0	
-5.91464e-006	-1.5157e-005	0	
-5.55611e-006	-1.56064e-005	0	
-5.19466e-006	-1.60648e-005	0	
-4.83077e-006	-1.65291e-005	0	
-4.46963e-006	-1.70005e-005	0	
-4.11216e-006	-1.74769e-005	0	
-3.76141e-006	-1.79579e-005	0	
-3.4179e-006	-1.84429e-005	0	
-3.08226e-006	-1.89295e-005	0	
-2.75573e-006	-1.94183e-005	0	
-2.43963e-006	-1.99071e-005	0	
-2.13322e-006	-2.03967e-005	0	
-1.83884e-006	-2.08855e-005	0	
-1.55373e-006	-2.13736e-005	0	
-1.28076e-006	-2.18587e-005	0	
-1.01572e-006	-2.23431e-005	0	
-7.61572e-007	-2.28232e-005	0	
-5.13187e-007	-2.33018e-005	0	
-2.7292e-007	-2.37744e-005	0	
-3.97248e-008	-2.42435e-005	0	
1.87997e-007	-2.47052e-005	0	
4.00977e-007	-2.51614e-005	0	
6.03935e-007	-2.56081e-005	0	
7.87941e-007	-2.60464e-005	0	
9.50549e-007	-2.64743e-005	0	
1.09322e-006	-2.68901e-005	0	
1.20935e-006	-2.7295e-005	0	
1.30238e-006	-2.76852e-005	0	
1.37801e-006	-2.80623e-005	0	
1.43305e-006	-2.84247e-005	0	
1.47853e-006	-2.87718e-005	0	
1.5161e-006	-2.91043e-005	0	
1.54532e-006	-2.9421e-005	0	
1.57676e-006	-2.9723e-005	0	
1.60047e-006	-3.00099e-005	0	
1.62534e-006	-3.02819e-005	0	
1.64577e-006	-3.054e-005	0	
1.66456e-006	-3.0786e-005	0	
1.68324e-006	-3.102e-005	0	
1.70364e-006	-3.12435e-005	0	
1.72874e-006	-3.14551e-005	0	
1.76234e-006	-3.16568e-005	0	
1.80594e-006	-3.18467e-005	0	
1.863e-006	-3.20266e-005	0	
1.93585e-006	-3.21941e-005	0	
2.02145e-006	-3.23508e-005	0	
2.12455e-006	-3.24923e-005	0	
2.23724e-006	-3.26215e-005	0	
2.36344e-006	-3.2733e-005	0	
2.49836e-006	-3.28309e-005	0	
2.64091e-006	-3.29117e-005	0	
2.79161e-006	-3.29772e-005	0	
2.94746e-006	-3.30285e-005	0	
3.11242e-006	-3.30642e-005	0	
3.28495e-006	-3.30902e-005	0	
3.4715e-006	-3.3104e-005	0	
3.67223e-006	-3.31117e-005	0	
3.89403e-006	-3.3112e-005	0	
4.13628e-006	-3.31083e-005	0	
4.40241e-006	-3.31014e-005	0	
4.69099e-006	-3.30916e-005	0	
4.99927e-006	-3.30795e-005	0	
5.3238e-006	-3.30655e-005	0	
5.65458e-006	-3.30506e-005	0	
5.99074e-006	-3.30361e-005	0	
6.31883e-006	-3.30212e-005	0	
6.64302e-006	-3.30086e-005	0	
6.95202e-006	-3.29988e-005	0	
7.25252e-006	-3.29939e-005	0	
7.53888e-006	-3.29936e-005	0	
-5.7597e-018	-1.2539e-017	0	
-9.25822e-007	-5.61051e-007	0	
-1.86142e-006	-1.14103e-006	0	
-2.75781e-006	-1.74552e-006	0	
-3.5834e-006	-2.36233e-006	0	
-4.32252e-006	-2.97789e-006	0	
-4.97499e-006	-3.58124e-006	0	
-5.54659e-006	-4.16824e-006	0	
-6.04527e-006	-4.7356e-006	0	
-6.48028e-006	-5.28397e-006	0	
-6.85847e-006	-5.81329e-006	0	
-7.18463e-006	-6.32797e-006	0	
-7.46464e-006	-6.82813e-006	0	
-7.69996e-006	-7.31972e-006	0	
-7.89425e-006	-7.80086e-006	0	
-8.04845e-006	-8.27669e-006	0	
-8.16447e-006	-8.74529e-006	0	
-8.24185e-006	-9.20898e-006	0	
-8.28283e-006	-9.66719e-006	0	
-8.28581e-006	-1.01208e-005	0	
-8.25363e-006	-1.05694e-005	0	
-8.18447e-006	-1.10152e-005	0	
-8.07978e-006	-1.14564e-005	0	
-7.9394e-006	-1.18964e-005	0	
-7.7634e-006	-1.23332e-005	0	
-7.55289e-006	-1.277e-005	0	
-7.31085e-006	-1.32073e-005	0	
-7.03703e-006	-1.36449e-005	0	
-6.73906e-006	-1.40865e-005	0	
-6.41709e-006	-1.453e-005	0	
-6.07846e-006	-1.498e-005	0	
-5.72581e-006	-1.54335e-005	0	
-5.36592e-006	-1.58941e-005	0	
-5.00064e-006	-1.63598e-005	0	
-4.6356e-006	-1.68317e-005	0	
-4.27096e-006	-1.7308e-005	0	
-3.91141e-006	-1.77882e-005	0	
-3.55822e-006	-1.82724e-005	0	
-3.21297e-006	-1.87582e-005	0	
-2.87591e-006	-1.92463e-005	0	
-2.54838e-006	-1.97341e-005	0	
-2.23041e-006	-2.02227e-005	0	
-1.92396e-006	-2.07104e-005	0	
-1.62754e-006	-2.11981e-005	0	
-1.34352e-006	-2.16826e-005	0	
-1.0693e-006	-2.21673e-005	0	
-8.0649e-007	-2.26466e-005	0	
-5.50953e-007	-2.31268e-005	0	
-3.05926e-007	-2.35994e-005	0	
-6.74391e-008	-2.4071e-005	0	
1.63391e-007	-2.45334e-005	0	
3.829e-007	-2.49919e-005	0	
5.94916e-007	-2.54402e-005	0	
7.88802e-007	-2.5881e-005	0	
9.66333e-007	-2.63114e-005	0	
1.12491e-006	-2.67303e-005	0	
1.25732e-006	-2.71386e-005	0	
1.36839e-006	-2.75328e-005	0	
1.4567e-006	-2.79156e-005	0	
1.52212e-006	-2.82838e-005	0	
1.57543e-006	-2.86398e-005	0	
1.61381e-006	-2.89802e-005	0	
1.64342e-006	-2.93081e-005	0	
1.67159e-006	-2.96202e-005	0	
1.69176e-006	-2.99189e-005	0	
1.71434e-006	-3.02039e-005	0	
1.73174e-006	-3.04736e-005	0	
1.74862e-006	-3.0733e-005	0	
1.76463e-006	-3.09768e-005	0	
1.77989e-006	-3.12143e-005	0	
1.79809e-006	-3.14361e-005	0	
1.82106e-006	-3.16528e-005	0	
1.85091e-006	-3.1854e-005	0	
1.892e-006	-3.20504e-005	0	
1.94534e-006	-3.22312e-005	0	
2.01152e-006	-3.24051e-005	0	
2.09313e-006	-3.2563e-005	0	
2.18463e-006	-3.27104e-005	0	
2.29085e-006	-3.28406e-005	0	
2.40588e-006	-3.29565e-005	0	
2.53057e-006	-3.3056e-005	0	
2.6646e-006	-3.31389e-005	0	
2.804e-006	-3.32074e-005	0	
2.95369e-006	-3.32587e-005	0	
3.11027e-006	-3.32996e-005	0	
3.27981e-006	-3.33264e-005	0	
3.4618e-006	-3.33464e-005	0	
3.66267e-006	-3.33581e-005	0	
3.88282e-006	-3.33644e-005	0	
4.12574e-006	-3.33679e-005	0	
4.39136e-006	-3.33661e-005	0	
4.67892e-006	-3.33645e-005	0	
4.98656e-006	-3.33562e-005	0	
5.30749e-006	-3.3348e-005	0	
5.63946e-006	-3.33347e-005	0	
5.97139e-006	-3.33218e-005	0	
6.30475e-006	-3.33074e-005	0	
6.62788e-006	-3.32933e-005	0	
6.94612e-006	-3.32829e-005	0	
7.25089e-006	-3.32769e-005	0	
7.54599e-006	-3.32776e-005	0	
-5.88473e-018	-1.21996e-017	0	
-9.19817e-007	-5.38862e-007	0	
-1.81603e-006	-1.08535e-006	0	
-2.66567e-006	-1.65424e-006	0	
-3.45413e-006	-2.24035e-006	0	
-4.17018e-006	-2.832e-006	0	
-4.80822e-006	-3.42162e-006	0	
-5.37291e-006	-4.00351e-006	0	
-5.87095e-006	-4.57294e-006	0	
-6.30726e-006	-5.12729e-006	0	
-6.68655e-006	-5.66646e-006	0	
-7.01368e-006	-6.19178e-006	0	
-7.29151e-006	-6.7074e-006	0	
-7.5246e-006	-7.21297e-006	0	
-7.71449e-006	-7.71367e-006	0	
-7.86484e-006	-8.20729e-006	0	
-7.9758e-006	-8.69757e-006	0	
-8.05074e-006	-9.18295e-006	0	
-8.08784e-006	-9.6643e-006	0	
-8.08996e-006	-1.01416e-005	0	
-8.05574e-006	-1.06151e-005	0	
-7.98684e-006	-1.10847e-005	0	
-7.88219e-006	-1.15515e-005	0	
-7.74267e-006	-1.20154e-005	0	
-7.56786e-006	-1.2476e-005	0	
-7.36019e-006	-1.29357e-005	0	
-7.11776e-006	-1.33922e-005	0	
-6.84767e-006	-1.38511e-005	0	
-6.54803e-006	-1.43079e-005	0	
-6.22751e-006	-1.47693e-005	0	
-5.88731e-006	-1.52312e-005	0	
-5.5338e-006	-1.56985e-005	0	
-5.17077e-006	-1.61689e-005	0	
-4.80445e-006	-1.66446e-005	0	
-4.43604e-006	-1.71242e-005	0	
-4.07018e-006	-1.7607e-005	0	
-3.70829e-006	-1.80935e-005	0	
-3.35342e-006	-1.8581e-005	0	
-3.00639e-006	-1.90716e-005	0	
-2.66826e-006	-1.95609e-005	0	
-2.33894e-006	-2.00517e-005	0	
-2.02063e-006	-2.05404e-005	0	
-1.7123e-006	-2.10296e-005	0	
-1.41588e-006	-2.15154e-005	0	
-1.13082e-006	-2.20015e-005	0	
-8.57491e-007	-2.24821e-005	0	
-5.93983e-007	-2.29642e-005	0	
-3.41555e-007	-2.34381e-005	0	
-9.63143e-008	-2.39124e-005	0	
1.38013e-007	-2.43769e-005	0	
3.63464e-007	-2.48392e-005	0	
5.80712e-007	-2.52907e-005	0	
7.82993e-007	-2.57355e-005	0	
9.72882e-007	-2.61702e-005	0	
1.14393e-006	-2.65938e-005	0	
1.29198e-006	-2.70075e-005	0	
1.42071e-006	-2.74068e-005	0	
1.52348e-006	-2.77955e-005	0	
1.60369e-006	-2.817e-005	0	
1.66706e-006	-2.85338e-005	0	
1.71122e-006	-2.8882e-005	0	
1.74529e-006	-2.92205e-005	0	
1.77176e-006	-2.95418e-005	0	
1.79033e-006	-2.98534e-005	0	
1.80969e-006	-3.01494e-005	0	
1.82411e-006	-3.04324e-005	0	
1.83829e-006	-3.07045e-005	0	
1.85174e-006	-3.09605e-005	0	
1.8633e-006	-3.12103e-005	0	
1.87732e-006	-3.14434e-005	0	
1.89247e-006	-3.16725e-005	0	
1.91266e-006	-3.18845e-005	0	
1.94064e-006	-3.20936e-005	0	
1.97739e-006	-3.2286e-005	0	
2.02681e-006	-3.24739e-005	0	
2.08821e-006	-3.26447e-005	0	
2.16063e-006	-3.28071e-005	0	
2.24613e-006	-3.29532e-005	0	
2.34092e-006	-3.30853e-005	0	
2.44642e-006	-3.32024e-005	0	
2.56145e-006	-3.33021e-005	0	
2.68266e-006	-3.33881e-005	0	
2.81509e-006	-3.34551e-005	0	
2.95412e-006	-3.3511e-005	0	
3.10626e-006	-3.35512e-005	0	
3.27001e-006	-3.35833e-005	0	
3.45059e-006	-3.36054e-005	0	
3.64977e-006	-3.36211e-005	0	
3.86995e-006	-3.36334e-005	0	
4.11302e-006	-3.36389e-005	0	
4.37817e-006	-3.36452e-005	0	
4.66575e-006	-3.36435e-005	0	
4.97084e-006	-3.36434e-005	0	
5.29124e-006	-3.36347e-005	0	
5.61965e-006	-3.36266e-005	0	
5.95367e-006	-3.36136e-005	0	
6.28512e-006	-3.36e-005	0	
6.61509e-006	-3.35871e-005	0	
6.9365e-006	-3.35749e-005	0	
7.25243e-006	-3.35698e-005	0	
7.55759e-006	-3.35709e-005	0	
-6.27127e-018	-1.22739e-017	0	
-9.39822e-007	-5.28279e-007	0	
-1.80254e-006	-1.05546e-006	0	
-2.6065e-006	-1.6066e-006	0	
-3.3638e-006	-2.17224e-006	0	
-4.05336e-006	-2.74189e-006	0	
-4.67086e-006	-3.31727e-006	0	
-5.22292e-006	-3.89241e-006	0	
-5.71571e-006	-4.46126e-006	0	
-6.15104e-006	-5.01742e-006	0	
-6.52964e-006	-5.56145e-006	0	
-6.85365e-006	-6.09446e-006	0	
-7.12744e-006	-6.61908e-006	0	
-7.35429e-006	-7.13848e-006	0	
-7.53831e-006	-7.65181e-006	0	
-7.68095e-006	-8.16245e-006	0	
-7.78716e-006	-8.66887e-006	0	
-7.85521e-006	-9.17257e-006	0	
-7.88917e-006	-9.67342e-006	0	
-7.88694e-006	-1.01707e-005	0	
-7.85105e-006	-1.06655e-005	0	
-7.78007e-006	-1.11563e-005	0	
-7.67559e-006	-1.16456e-005	0	
-7.53588e-006	-1.21302e-005	0	
-7.36374e-006	-1.26145e-005	0	
-7.15618e-006	-1.30924e-005	0	
-6.91879e-006	-1.35716e-005	0	
-6.64768e-006	-1.40454e-005	0	
-6.35174e-006	-1.4522e-005	0	
-6.03073e-006	-1.4996e-005	0	
-5.69077e-006	-1.54737e-005	0	
-5.33601e-006	-1.59524e-005	0	
-4.97178e-006	-1.6435e-005	0	
-4.6023e-006	-1.69202e-005	0	
-4.23258e-006	-1.74083e-005	0	
-3.86453e-006	-1.78994e-005	0	
-3.50116e-006	-1.83916e-005	0	
-3.14486e-006	-1.88869e-005	0	
-2.79661e-006	-1.93805e-005	0	
-2.45662e-006	-1.98762e-005	0	
-2.12683e-006	-2.03684e-005	0	
-1.80676e-006	-2.08617e-005	0	
-1.49856e-006	-2.13509e-005	0	
-1.20142e-006	-2.184e-005	0	
-9.15906e-007	-2.2324e-005	0	
-6.42572e-007	-2.28084e-005	0	
-3.80827e-007	-2.32861e-005	0	
-1.28301e-007	-2.37633e-005	0	
1.12106e-007	-2.42317e-005	0	
3.44591e-007	-2.46979e-005	0	
5.65636e-007	-2.51543e-005	0	
7.74985e-007	-2.56044e-005	0	