# vtk DataFile Version 4.1
vtk output
ASCII
DATASET UNSTRUCTURED_GRID

POINTS	30401	float
0	0	0	
0	1	0	
0	2	0	
0	3	0	
0	4	0	
0	5	0	
0	6	0	
0	7	0	
0	8	0	
0	9	0	
0	10	0	
0	11	0	
0	12	0	
0	13	0	
0	14	0	
0	15	0	
0	16	0	
0	17	0	
0	18	0	
0	19	0	
0	20	0	
0	21	0	
0	22	0	
0	23	0	
0	24	0	
0	25	0	
0	26	0	
0	27	0	
0	28	0	
0	29	0	
0	30	0	
0	31	0	
0	32	0	
0	33	0	
0	34	0	
0	35	0	
0	36	0	
0	37	0	
0	38	0	
0	39	0	
0	40	0	
0	41	0	
0	42	0	
0	43	0	
0	44	0	
0	45	0	
0	46	0	
0	47	0	
0	48	0	
0	49	0	
0	50	0	
0	51	0	
0	52	0	
0	53	0	
0	54	0	
0	55	0	
0	56	0	
0	57	0	
0	58	0	
0	59	0	
0	60	0	
0	61	0	
0	62	0	
0	63	0	
0	64	0	
0	65	0	
0	66	0	
0	67	0	
0	68	0	
0	69	0	
0	70	0	
0	71	0	
0	72	0	
0	73	0	
0	74	0	
0	75	0	
0	76	0	
0	77	0	
0	78	0	
0	79	0	
0	80	0	
0	81	0	
0	82	0	
0	83	0	
0	84	0	
0	85	0	
0	86	0	
0	87	0	
0	88	0	
0	89	0	
0	90	0	
0	91	0	
0	92	0	
0	93	0	
0	94	0	
0	95	0	
0	96	0	
0	97	0	
0	98	0	
0	99	0	
0	100	0	
1	0	0	
1	1	0	
1	2	0	
1	3	0	
1	4	0	
1	5	0	
1	6	0	
1	7	0	
1	8	0	
1	9	0	
1	10	0	
1	11	0	
1	12	0	
1	13	0	
1	14	0	
1	15	0	
1	16	0	
1	17	0	
1	18	0	
1	19	0	
1	20	0	
1	21	0	
1	22	0	
1	23	0	
1	24	0	
1	25	0	
1	26	0	
1	27	0	
1	28	0	
1	29	0	
1	30	0	
1	31	0	
1	32	0	
1	33	0	
1	34	0	
1	35	0	
1	36	0	
1	37	0	
1	38	0	
1	39	0	
1	40	0	
1	41	0	
1	42	0	
1	43	0	
1	44	0	
1	45	0	
1	46	0	
1	47	0	
1	48	0	
1	49	0	
1	50	0	
1	51	0	
1	52	0	
1	53	0	
1	54	0	
1	55	0	
1	56	0	
1	57	0	
1	58	0	
1	59	0	
1	60	0	
1	61	0	
1	62	0	
1	63	0	
1	64	0	
1	65	0	
1	66	0	
1	67	0	
1	68	0	
1	69	0	
1	70	0	
1	71	0	
1	72	0	
1	73	0	
1	74	0	
1	75	0	
1	76	0	
1	77	0	
1	78	0	
1	79	0	
1	80	0	
1	81	0	
1	82	0	
1	83	0	
1	84	0	
1	85	0	
1	86	0	
1	87	0	
1	88	0	
1	89	0	
1	90	0	
1	91	0	
1	92	0	
1	93	0	
1	94	0	
1	95	0	
1	96	0	
1	97	0	
1	98	0	
1	99	0	
1	100	0	
2	0	0	
2	1	0	
2	2	0	
2	3	0	
2	4	0	
2	5	0	
2	6	0	
2	7	0	
2	8	0	
2	9	0	
2	10	0	
2	11	0	
2	12	0	
2	13	0	
2	14	0	
2	15	0	
2	16	0	
2	17	0	
2	18	0	
2	19	0	
2	20	0	
2	21	0	
2	22	0	
2	23	0	
2	24	0	
2	25	0	
2	26	0	
2	27	0	
2	28	0	
2	29	0	
2	30	0	
2	31	0	
2	32	0	
2	33	0	
2	34	0	
2	35	0	
2	36	0	
2	37	0	
2	38	0	
2	39	0	
2	40	0	
2	41	0	
2	42	0	
2	43	0	
2	44	0	
2	45	0	
2	46	0	
2	47	0	
2	48	0	
2	49	0	
2	50	0	
2	51	0	
2	52	0	
2	53	0	
2	54	0	
2	55	0	
2	56	0	
2	57	0	
2	58	0	
2	59	0	
2	60	0	
2	61	0	
2	62	0	
2	63	0	
2	64	0	
2	65	0	
2	66	0	
2	67	0	
2	68	0	
2	69	0	
2	70	0	
2	71	0	
2	72	0	
2	73	0	
2	74	0	
2	75	0	
2	76	0	
2	77	0	
2	78	0	
2	79	0	
2	80	0	
2	81	0	
2	82	0	
2	83	0	
2	84	0	
2	85	0	
2	86	0	
2	87	0	
2	88	0	
2	89	0	
2	90	0	
2	91	0	
2	92	0	
2	93	0	
2	94	0	
2	95	0	
2	96	0	
2	97	0	
2	98	0	
2	99	0	
2	100	0	
3	0	0	
3	1	0	
3	2	0	
3	3	0	
3	4	0	
3	5	0	
3	6	0	
3	7	0	
3	8	0	
3	9	0	
3	10	0	
3	11	0	
3	12	0	
3	13	0	
3	14	0	
3	15	0	
3	16	0	
3	17	0	
3	18	0	
3	19	0	
3	20	0	
3	21	0	
3	22	0	
3	23	0	
3	24	0	
3	25	0	
3	26	0	
3	27	0	
3	28	0	
3	29	0	
3	30	0	
3	31	0	
3	32	0	
3	33	0	
3	34	0	
3	35	0	
3	36	0	
3	37	0	
3	38	0	
3	39	0	
3	40	0	
3	41	0	
3	42	0	
3	43	0	
3	44	0	
3	45	0	
3	46	0	
3	47	0	
3	48	0	
3	49	0	
3	50	0	
3	51	0	
3	52	0	
3	53	0	
3	54	0	
3	55	0	
3	56	0	
3	57	0	
3	58	0	
3	59	0	
3	60	0	
3	61	0	
3	62	0	
3	63	0	
3	64	0	
3	65	0	
3	66	0	
3	67	0	
3	68	0	
3	69	0	
3	70	0	
3	71	0	
3	72	0	
3	73	0	
3	74	0	
3	75	0	
3	76	0	
3	77	0	
3	78	0	
3	79	0	
3	80	0	
3	81	0	
3	82	0	
3	83	0	
3	84	0	
3	85	0	
3	86	0	
3	87	0	
3	88	0	
3	89	0	
3	90	0	
3	91	0	
3	92	0	
3	93	0	
3	94	0	
3	95	0	
3	96	0	
3	97	0	
3	98	0	
3	99	0	
3	100	0	
4	0	0	
4	1	0	
4	2	0	
4	3	0	
4	4	0	
4	5	0	
4	6	0	
4	7	0	
4	8	0	
4	9	0	
4	10	0	
4	11	0	
4	12	0	
4	13	0	
4	14	0	
4	15	0	
4	16	0	
4	17	0	
4	18	0	
4	19	0	
4	20	0	
4	21	0	
4	22	0	
4	23	0	
4	24	0	
4	25	0	
4	26	0	
4	27	0	
4	28	0	
4	29	0	
4	30	0	
4	31	0	
4	32	0	
4	33	0	
4	34	0	
4	35	0	
4	36	0	
4	37	0	
4	38	0	
4	39	0	
4	40	0	
4	41	0	
4	42	0	
4	43	0	
4	44	0	
4	45	0	
4	46	0	
4	47	0	
4	48	0	
4	49	0	
4	50	0	
4	51	0	
4	52	0	
4	53	0	
4	54	0	
4	55	0	
4	56	0	
4	57	0	
4	58	0	
4	59	0	
4	60	0	
4	61	0	
4	62	0	
4	63	0	
4	64	0	
4	65	0	
4	66	0	
4	67	0	
4	68	0	
4	69	0	
4	70	0	
4	71	0	
4	72	0	
4	73	0	
4	74	0	
4	75	0	
4	76	0	
4	77	0	
4	78	0	
4	79	0	
4	80	0	
4	81	0	
4	82	0	
4	83	0	
4	84	0	
4	85	0	
4	86	0	
4	87	0	
4	88	0	
4	89	0	
4	90	0	
4	91	0	
4	92	0	
4	93	0	
4	94	0	
4	95	0	
4	96	0	
4	97	0	
4	98	0	
4	99	0	
4	100	0	
5	0	0	
5	1	0	
5	2	0	
5	3	0	
5	4	0	
5	5	0	
5	6	0	
5	7	0	
5	8	0	
5	9	0	
5	10	0	
5	11	0	
5	12	0	
5	13	0	
5	14	0	
5	15	0	
5	16	0	
5	17	0	
5	18	0	
5	19	0	
5	20	0	
5	21	0	
5	22	0	
5	23	0	
5	24	0	
5	25	0	
5	26	0	
5	27	0	
5	28	0	
5	29	0	
5	30	0	
5	31	0	
5	32	0	
5	33	0	
5	34	0	
5	35	0	
5	36	0	
5	37	0	
5	38	0	
5	39	0	
5	40	0	
5	41	0	
5	42	0	
5	43	0	
5	44	0	
5	45	0	
5	46	0	
5	47	0	
5	48	0	
5	49	0	
5	50	0	
5	51	0	
5	52	0	
5	53	0	
5	54	0	
5	55	0	
5	56	0	
5	57	0	
5	58	0	
5	59	0	
5	60	0	
5	61	0	
5	62	0	
5	63	0	
5	64	0	
5	65	0	
5	66	0	
5	67	0	
5	68	0	
5	69	0	
5	70	0	
5	71	0	
5	72	0	
5	73	0	
5	74	0	
5	75	0	
5	76	0	
5	77	0	
5	78	0	
5	79	0	
5	80	0	
5	81	0	
5	82	0	
5	83	0	
5	84	0	
5	85	0	
5	86	0	
5	87	0	
5	88	0	
5	89	0	
5	90	0	
5	91	0	
5	92	0	
5	93	0	
5	94	0	
5	95	0	
5	96	0	
5	97	0	
5	98	0	
5	99	0	
5	100	0	
6	0	0	
6	1	0	
6	2	0	
6	3	0	
6	4	0	
6	5	0	
6	6	0	
6	7	0	
6	8	0	
6	9	0	
6	10	0	
6	11	0	
6	12	0	
6	13	0	
6	14	0	
6	15	0	
6	16	0	
6	17	0	
6	18	0	
6	19	0	
6	20	0	
6	21	0	
6	22	0	
6	23	0	
6	24	0	
6	25	0	
6	26	0	
6	27	0	
6	28	0	
6	29	0	
6	30	0	
6	31	0	
6	32	0	
6	33	0	
6	34	0	
6	35	0	
6	36	0	
6	37	0	
6	38	0	
6	39	0	
6	40	0	
6	41	0	
6	42	0	
6	43	0	
6	44	0	
6	45	0	
6	46	0	
6	47	0	
6	48	0	
6	49	0	
6	50	0	
6	51	0	
6	52	0	
6	53	0	
6	54	0	
6	55	0	
6	56	0	
6	57	0	
6	58	0	
6	59	0	
6	60	0	
6	61	0	
6	62	0	
6	63	0	
6	64	0	
6	65	0	
6	66	0	
6	67	0	
6	68	0	
6	69	0	
6	70	0	
6	71	0	
6	72	0	
6	73	0	
6	74	0	
6	75	0	
6	76	0	
6	77	0	
6	78	0	
6	79	0	
6	80	0	
6	81	0	
6	82	0	
6	83	0	
6	84	0	
6	85	0	
6	86	0	
6	87	0	
6	88	0	
6	89	0	
6	90	0	
6	91	0	
6	92	0	
6	93	0	
6	94	0	
6	95	0	
6	96	0	
6	97	0	
6	98	0	
6	99	0	
6	100	0	
7	0	0	
7	1	0	
7	2	0	
7	3	0	
7	4	0	
7	5	0	
7	6	0	
7	7	0	
7	8	0	
7	9	0	
7	10	0	
7	11	0	
7	12	0	
7	13	0	
7	14	0	
7	15	0	
7	16	0	
7	17	0	
7	18	0	
7	19	0	
7	20	0	
7	21	0	
7	22	0	
7	23	0	
7	24	0	
7	25	0	
7	26	0	
7	27	0	
7	28	0	
7	29	0	
7	30	0	
7	31	0	
7	32	0	
7	33	0	
7	34	0	
7	35	0	
7	36	0	
7	37	0	
7	38	0	
7	39	0	
7	40	0	
7	41	0	
7	42	0	
7	43	0	
7	44	0	
7	45	0	
7	46	0	
7	47	0	
7	48	0	
7	49	0	
7	50	0	
7	51	0	
7	52	0	
7	53	0	
7	54	0	
7	55	0	
7	56	0	
7	57	0	
7	58	0	
7	59	0	
7	60	0	
7	61	0	
7	62	0	
7	63	0	
7	64	0	
7	65	0	
7	66	0	
7	67	0	
7	68	0	
7	69	0	
7	70	0	
7	71	0	
7	72	0	
7	73	0	
7	74	0	
7	75	0	
7	76	0	
7	77	0	
7	78	0	
7	79	0	
7	80	0	
7	81	0	
7	82	0	
7	83	0	
7	84	0	
7	85	0	
7	86	0	
7	87	0	
7	88	0	
7	89	0	
7	90	0	
7	91	0	
7	92	0	
7	93	0	
7	94	0	
7	95	0	
7	96	0	
7	97	0	
7	98	0	
7	99	0	
7	100	0	
8	0	0	
8	1	0	
8	2	0	
8	3	0	
8	4	0	
8	5	0	
8	6	0	
8	7	0	
8	8	0	
8	9	0	
8	10	0	
8	11	0	
8	12	0	
8	13	0	
8	14	0	
8	15	0	
8	16	0	
8	17	0	
8	18	0	
8	19	0	
8	20	0	
8	21	0	
8	22	0	
8	23	0	
8	24	0	
8	25	0	
8	26	0	
8	27	0	
8	28	0	
8	29	0	
8	30	0	
8	31	0	
8	32	0	
8	33	0	
8	34	0	
8	35	0	
8	36	0	
8	37	0	
8	38	0	
8	39	0	
8	40	0	
8	41	0	
8	42	0	
8	43	0	
8	44	0	
8	45	0	
8	46	0	
8	47	0	
8	48	0	
8	49	0	
8	50	0	
8	51	0	
8	52	0	
8	53	0	
8	54	0	
8	55	0	
8	56	0	
8	57	0	
8	58	0	
8	59	0	
8	60	0	
8	61	0	
8	62	0	
8	63	0	
8	64	0	
8	65	0	
8	66	0	
8	67	0	
8	68	0	
8	69	0	
8	70	0	
8	71	0	
8	72	0	
8	73	0	
8	74	0	
8	75	0	
8	76	0	
8	77	0	
8	78	0	
8	79	0	
8	80	0	
8	81	0	
8	82	0	
8	83	0	
8	84	0	
8	85	0	
8	86	0	
8	87	0	
8	88	0	
8	89	0	
8	90	0	
8	91	0	
8	92	0	
8	93	0	
8	94	0	
8	95	0	
8	96	0	
8	97	0	
8	98	0	
8	99	0	
8	100	0	
9	0	0	
9	1	0	
9	2	0	
9	3	0	
9	4	0	
9	5	0	
9	6	0	
9	7	0	
9	8	0	
9	9	0	
9	10	0	
9	11	0	
9	12	0	
9	13	0	
9	14	0	
9	15	0	
9	16	0	
9	17	0	
9	18	0	
9	19	0	
9	20	0	
9	21	0	
9	22	0	
9	23	0	
9	24	0	
9	25	0	
9	26	0	
9	27	0	
9	28	0	
9	29	0	
9	30	0	
9	31	0	
9	32	0	
9	33	0	
9	34	0	
9	35	0	
9	36	0	
9	37	0	
9	38	0	
9	39	0	
9	40	0	
9	41	0	
9	42	0	
9	43	0	
9	44	0	
9	45	0	
9	46	0	
9	47	0	
9	48	0	
9	49	0	
9	50	0	
9	51	0	
9	52	0	
9	53	0	
9	54	0	
9	55	0	
9	56	0	
9	57	0	
9	58	0	
9	59	0	
9	60	0	
9	61	0	
9	62	0	
9	63	0	
9	64	0	
9	65	0	
9	66	0	
9	67	0	
9	68	0	
9	69	0	
9	70	0	
9	71	0	
9	72	0	
9	73	0	
9	74	0	
9	75	0	
9	76	0	
9	77	0	
9	78	0	
9	79	0	
9	80	0	
9	81	0	
9	82	0	
9	83	0	
9	84	0	
9	85	0	
9	86	0	
9	87	0	
9	88	0	
9	89	0	
9	90	0	
9	91	0	
9	92	0	
9	93	0	
9	94	0	
9	95	0	
9	96	0	
9	97	0	
9	98	0	
9	99	0	
9	100	0	
10	0	0	
10	1	0	
10	2	0	
10	3	0	
10	4	0	
10	5	0	
10	6	0	
10	7	0	
10	8	0	
10	9	0	
10	10	0	
10	11	0	
10	12	0	
10	13	0	
10	14	0	
10	15	0	
10	16	0	
10	17	0	
10	18	0	
10	19	0	
10	20	0	
10	21	0	
10	22	0	
10	23	0	
10	24	0	
10	25	0	
10	26	0	
10	27	0	
10	28	0	
10	29	0	
10	30	0	
10	31	0	
10	32	0	
10	33	0	
10	34	0	
10	35	0	
10	36	0	
10	37	0	
10	38	0	
10	39	0	
10	40	0	
10	41	0	
10	42	0	
10	43	0	
10	44	0	
10	45	0	
10	46	0	
10	47	0	
10	48	0	
10	49	0	
10	50	0	
10	51	0	
10	52	0	
10	53	0	
10	54	0	
10	55	0	
10	56	0	
10	57	0	
10	58	0	
10	59	0	
10	60	0	
10	61	0	
10	62	0	
10	63	0	
10	64	0	
10	65	0	
10	66	0	
10	67	0	
10	68	0	
10	69	0	
10	70	0	
10	71	0	
10	72	0	
10	73	0	
10	74	0	
10	75	0	
10	76	0	
10	77	0	
10	78	0	
10	79	0	
10	80	0	
10	81	0	
10	82	0	
10	83	0	
10	84	0	
10	85	0	
10	86	0	
10	87	0	
10	88	0	
10	89	0	
10	90	0	
10	91	0	
10	92	0	
10	93	0	
10	94	0	
10	95	0	
10	96	0	
10	97	0	
10	98	0	
10	99	0	
10	100	0	
11	0	0	
11	1	0	
11	2	0	
11	3	0	
11	4	0	
11	5	0	
11	6	0	
11	7	0	
11	8	0	
11	9	0	
11	10	0	
11	11	0	
11	12	0	
11	13	0	
11	14	0	
11	15	0	
11	16	0	
11	17	0	
11	18	0	
11	19	0	
11	20	0	
11	21	0	
11	22	0	
11	23	0	
11	24	0	
11	25	0	
11	26	0	
11	27	0	
11	28	0	
11	29	0	
11	30	0	
11	31	0	
11	32	0	
11	33	0	
11	34	0	
11	35	0	
11	36	0	
11	37	0	
11	38	0	
11	39	0	
11	40	0	
11	41	0	
11	42	0	
11	43	0	
11	44	0	
11	45	0	
11	46	0	
11	47	0	
11	48	0	
11	49	0	
11	50	0	
11	51	0	
11	52	0	
11	53	0	
11	54	0	
11	55	0	
11	56	0	
11	57	0	
11	58	0	
11	59	0	
11	60	0	
11	61	0	
11	62	0	
11	63	0	
11	64	0	
11	65	0	
11	66	0	
11	67	0	
11	68	0	
11	69	0	
11	70	0	
11	71	0	
11	72	0	
11	73	0	
11	74	0	
11	75	0	
11	76	0	
11	77	0	
11	78	0	
11	79	0	
11	80	0	
11	81	0	
11	82	0	
11	83	0	
11	84	0	
11	85	0	
11	86	0	
11	87	0	
11	88	0	
11	89	0	
11	90	0	
11	91	0	
11	92	0	
11	93	0	
11	94	0	
11	95	0	
11	96	0	
11	97	0	
11	98	0	
11	99	0	
11	100	0	
12	0	0	
12	1	0	
12	2	0	
12	3	0	
12	4	0	
12	5	0	
12	6	0	
12	7	0	
12	8	0	
12	9	0	
12	10	0	
12	11	0	
12	12	0	
12	13	0	
[...]
POINT_DATA	30401
VECTORS d float
-8.618e-018	-1.55725e-017	0	
-4.48034e-007	-4.81372e-007	0	
-7.59618e-007	-7.79843e-007	0	
-1.03026e-006	-1.02697e-006	0	
-1.2738e-006	-1.24498e-006	0	
-1.49964e-006	-1.44046e-006	0	
-1.71e-006	-1.61923e-006	0	
-1.90692e-006	-1.7845e-006	0	
-2.0916e-006	-1.93866e-006	0	
-2.26498e-006	-2.08349e-006	0	
-2.42781e-006	-2.22035e-006	0	
-2.58067e-006	-2.3503e-006	0	
-2.72404e-006	-2.47423e-006	0	
-2.85835e-006	-2.5929e-006	0	
-2.984e-006	-2.70688e-006	0	
-3.10131e-006	-2.81668e-006	0	
-3.21056e-006	-2.92273e-006	0	
-3.312e-006	-3.0254e-006	0	
-3.40586e-006	-3.12502e-006	0	
-3.49233e-006	-3.22189e-006	0	
-3.57162e-006	-3.31626e-006	0	
-3.64391e-006	-3.40838e-006	0	
-3.70935e-006	-3.49847e-006	0	
-3.76811e-006	-3.58676e-006	0	
-3.82036e-006	-3.67345e-006	0	
-3.86622e-006	-3.75873e-006	0	
-3.90587e-006	-3.84282e-006	0	
-3.93947e-006	-3.9259e-006	0	
-3.96717e-006	-4.00813e-006	0	
-3.98913e-006	-4.08969e-006	0	
-4.00553e-006	-4.17076e-006	0	
-4.01655e-006	-4.25147e-006	0	
-4.02239e-006	-4.33199e-006	0	
-4.02325e-006	-4.41245e-006	0	
-4.01933e-006	-4.49298e-006	0	
-4.01088e-006	-4.57369e-006	0	
-3.99812e-006	-4.65467e-006	0	
-3.9813e-006	-4.73601e-006	0	
-3.96068e-006	-4.81777e-006	0	
-3.93651e-006	-4.89999e-006	0	
-3.90906e-006	-4.98271e-006	0	
-3.87859e-006	-5.06591e-006	0	
-3.84533e-006	-5.14959e-006	0	
-3.80953e-006	-5.23372e-006	0	
-3.77145e-006	-5.31824e-006	0	
-3.73131e-006	-5.40308e-006	0	
-3.68933e-006	-5.48817e-006	0	
-3.64571e-006	-5.57339e-006	0	
-3.60063e-006	-5.65863e-006	0	
-3.55428e-006	-5.74377e-006	0	
-3.50681e-006	-5.82867e-006	0	
-3.45836e-006	-5.91317e-006	0	
-3.40905e-006	-5.99711e-006	0	
-3.35898e-006	-6.08031e-006	0	
-3.30825e-006	-6.1626e-006	0	
-3.25688e-006	-6.24377e-006	0	
-3.20493e-006	-6.32364e-006	0	
-3.1524e-006	-6.40203e-006	0	
-3.0993e-006	-6.47873e-006	0	
-3.04557e-006	-6.55356e-006	0	
-2.99116e-006	-6.62634e-006	0	
-2.93597e-006	-6.69691e-006	0	
-2.8799e-006	-6.76511e-006	0	
-2.82282e-006	-6.83079e-006	0	
-2.76461e-006	-6.89383e-006	0	
-2.70511e-006	-6.95412e-006	0	
-2.64419e-006	-7.01154e-006	0	
-2.58166e-006	-7.06601e-006	0	
-2.51734e-006	-7.11746e-006	0	
-2.45107e-006	-7.16583e-006	0	
-2.38268e-006	-7.21109e-006	0	
-2.31199e-006	-7.25321e-006	0	
-2.23881e-006	-7.29218e-006	0	
-2.16297e-006	-7.32803e-006	0	
-2.08431e-006	-7.36079e-006	0	
-2.00266e-006	-7.39052e-006	0	
-1.91786e-006	-7.41729e-006	0	
-1.82978e-006	-7.4412e-006	0	
-1.73828e-006	-7.46236e-006	0	
-1.64326e-006	-7.48092e-006	0	
-1.54463e-006	-7.49701e-006	0	
-1.44232e-006	-7.51079e-006	0	
-1.33628e-006	-7.52243e-006	0	
-1.22651e-006	-7.53213e-006	0	
-1.11304e-006	-7.54007e-006	0	
-9.95903e-007	-7.54644e-006	0	
-8.75198e-007	-7.55146e-006	0	
-7.5103e-007	-7.55531e-006	0	
-6.23537e-007	-7.55821e-006	0	
-4.92911e-007	-7.56035e-006	0	
-3.59359e-007	-7.56193e-006	0	
-2.23138e-007	-7.56313e-006	0	
-8.45345e-008	-7.56413e-006	0	
5.61214e-008	-7.56507e-006	0	
1.98461e-007	-7.56607e-006	0	
3.421e-007	-7.5672e-006	0	
4.86628e-007	-7.5685e-006	0	
6.31637e-007	-7.56991e-006	0	
7.76733e-007	-7.57131e-006	0	
9.21622e-007	-7.57245e-006	0	
1.06594e-006	-7.57311e-006	0	
-2.4893e-018	-5.5392e-018	0	
-3.30343e-007	-2.79704e-007	0	
-6.4626e-007	-5.5535e-007	0	
-9.29769e-007	-8.11209e-007	0	
-1.184e-006	-1.03791e-006	0	
-1.41775e-006	-1.24364e-006	0	
-1.63449e-006	-1.43245e-006	0	
-1.83663e-006	-1.60755e-006	0	
-2.0257e-006	-1.77124e-006	0	
-2.20282e-006	-1.92528e-006	0	
-2.36887e-006	-2.07106e-006	0	
-2.52453e-006	-2.20966e-006	0	
-2.67037e-006	-2.34199e-006	0	
-2.80686e-006	-2.46878e-006	0	
-2.93445e-006	-2.59065e-006	0	
-3.0535e-006	-2.70813e-006	0	
-3.16431e-006	-2.82166e-006	0	
-3.26716e-006	-2.93161e-006	0	
-3.36229e-006	-3.03834e-006	0	
-3.44992e-006	-3.14214e-006	0	
-3.53026e-006	-3.24329e-006	0	
-3.60348e-006	-3.34203e-006	0	
-3.66976e-006	-3.4386e-006	0	
-3.72928e-006	-3.53322e-006	0	
-3.78219e-006	-3.6261e-006	0	
-3.82864e-006	-3.71744e-006	0	
-3.8688e-006	-3.80743e-006	0	
-3.90282e-006	-3.89626e-006	0	
-3.93087e-006	-3.98409e-006	0	
-3.95312e-006	-4.07109e-006	0	
-3.96974e-006	-4.15742e-006	0	
-3.98091e-006	-4.24322e-006	0	
-3.98684e-006	-4.32864e-006	0	
-3.98773e-006	-4.41381e-006	0	
-3.9838e-006	-4.49883e-006	0	
-3.97529e-006	-4.58382e-006	0	
-3.96244e-006	-4.66887e-006	0	
-3.9455e-006	-4.75404e-006	0	
-3.92474e-006	-4.83941e-006	0	
-3.90041e-006	-4.92501e-006	0	
-3.8728e-006	-5.01086e-006	0	
-3.84215e-006	-5.09698e-006	0	
-3.80874e-006	-5.18334e-006	0	
-3.7728e-006	-5.26993e-006	0	
-3.7346e-006	-5.35669e-006	0	
-3.69437e-006	-5.44357e-006	0	
-3.65234e-006	-5.5305e-006	0	
-3.60872e-006	-5.61738e-006	0	
-3.56369e-006	-5.70412e-006	0	
-3.51743e-006	-5.7906e-006	0	
-3.47012e-006	-5.8767e-006	0	
-3.42189e-006	-5.96228e-006	0	
-3.37287e-006	-6.04721e-006	0	
-3.32317e-006	-6.13131e-006	0	
-3.27288e-006	-6.21444e-006	0	
-3.22203e-006	-6.29642e-006	0	
-3.17067e-006	-6.37708e-006	0	
-3.11882e-006	-6.45624e-006	0	
-3.06646e-006	-6.53375e-006	0	
-3.01355e-006	-6.60943e-006	0	
-2.96002e-006	-6.68313e-006	0	
-2.90578e-006	-6.75469e-006	0	
-2.85073e-006	-6.82398e-006	0	
-2.79472e-006	-6.89086e-006	0	
-2.73763e-006	-6.95522e-006	0	
-2.67931e-006	-7.01695e-006	0	
-2.61959e-006	-7.07597e-006	0	
-2.5583e-006	-7.13219e-006	0	
-2.49525e-006	-7.18555e-006	0	
-2.43028e-006	-7.23599e-006	0	
-2.36318e-006	-7.28347e-006	0	
-2.2938e-006	-7.32797e-006	0	
-2.22193e-006	-7.36948e-006	0	
-2.14739e-006	-7.40803e-006	0	
-2.07e-006	-7.44362e-006	0	
-1.9896e-006	-7.47633e-006	0	
-1.90603e-006	-7.5062e-006	0	
-1.81913e-006	-7.53333e-006	0	
-1.72876e-006	-7.5578e-006	0	
-1.63482e-006	-7.57975e-006	0	
-1.5372e-006	-7.59929e-006	0	
-1.43584e-006	-7.61656e-006	0	
-1.33069e-006	-7.63171e-006	0	
-1.22173e-006	-7.64489e-006	0	
-1.10899e-006	-7.65628e-006	0	
-9.92504e-007	-7.66603e-006	0	
-8.72364e-007	-7.67432e-006	0	
-7.4868e-007	-7.68133e-006	0	
-6.21597e-007	-7.68722e-006	0	
-4.91295e-007	-7.69217e-006	0	
-3.57995e-007	-7.69634e-006	0	
-2.21953e-007	-7.69988e-006	0	
-8.3468e-008	-7.70293e-006	0	
5.71176e-008	-7.70561e-006	0	
1.9943e-007	-7.70803e-006	0	
3.43067e-007	-7.71023e-006	0	
4.87588e-007	-7.71225e-006	0	
6.32565e-007	-7.71409e-006	0	
7.77569e-007	-7.71565e-006	0	
9.22268e-007	-7.71682e-006	0	
1.06657e-006	-7.71744e-006	0	
-1.49611e-018	-4.38983e-018	0	
-2.67418e-007	-2.09172e-007	0	
-5.60883e-007	-4.38181e-007	0	
-8.40367e-007	-6.67353e-007	0	
-1.09827e-006	-8.84775e-007	0	
-1.33688e-006	-1.08867e-006	0	
-1.55842e-006	-1.27944e-006	0	
-1.76492e-006	-1.45855e-006	0	
-1.95786e-006	-1.6274e-006	0	
-2.13841e-006	-1.78728e-006	0	
-2.30749e-006	-1.93929e-006	0	
-2.46584e-006	-2.08435e-006	0	
-2.61408e-006	-2.22325e-006	0	
-2.75272e-006	-2.35667e-006	0	
-2.88223e-006	-2.48515e-006	0	
-3.00302e-006	-2.6092e-006	0	
-3.11541e-006	-2.72924e-006	0	
-3.21969e-006	-2.84563e-006	0	
-3.31612e-006	-2.95871e-006	0	
-3.40493e-006	-3.06877e-006	0	
-3.48634e-006	-3.17606e-006	0	
-3.56054e-006	-3.28084e-006	0	
-3.6277e-006	-3.38335e-006	0	
-3.68802e-006	-3.48378e-006	0	
-3.74164e-006	-3.58236e-006	0	
-3.78872e-006	-3.67927e-006	0	
-3.82942e-006	-3.7747e-006	0	
-3.86392e-006	-3.86883e-006	0	
-3.89237e-006	-3.96184e-006	0	
-3.91495e-006	-4.05387e-006	0	
-3.93185e-006	-4.14508e-006	0	
-3.94323e-006	-4.2356e-006	0	
-3.94931e-006	-4.32558e-006	0	
-3.9503e-006	-4.41514e-006	0	
-3.94643e-006	-4.50438e-006	0	
-3.93794e-006	-4.5934e-006	0	
-3.92507e-006	-4.6823e-006	0	
-3.90808e-006	-4.77114e-006	0	
-3.88724e-006	-4.85998e-006	0	
-3.86283e-006	-4.94886e-006	0	
-3.83512e-006	-5.03781e-006	0	
-3.80438e-006	-5.12683e-006	0	
-3.77087e-006	-5.21591e-006	0	
-3.73486e-006	-5.30502e-006	0	
-3.6966e-006	-5.39414e-006	0	
-3.65633e-006	-5.48321e-006	0	
-3.6143e-006	-5.57217e-006	0	
-3.57071e-006	-5.66093e-006	0	
-3.52577e-006	-5.74941e-006	0	
-3.47965e-006	-5.83751e-006	0	
-3.43252e-006	-5.92511e-006	0	
-3.38454e-006	-6.0121e-006	0	
-3.33583e-006	-6.09834e-006	0	
-3.2865e-006	-6.18369e-006	0	
-3.23665e-006	-6.26802e-006	0	
-3.18632e-006	-6.35116e-006	0	
-3.13554e-006	-6.43296e-006	0	
-3.08434e-006	-6.51327e-006	0	
-3.0327e-006	-6.59193e-006	0	
-2.98058e-006	-6.6688e-006	0	
-2.9279e-006	-6.74373e-006	0	
-2.87457e-006	-6.81659e-006	0	
-2.82048e-006	-6.88725e-006	0	
-2.7655e-006	-6.95559e-006	0	
-2.70948e-006	-7.02149e-006	0	
-2.65227e-006	-7.08488e-006	0	
-2.5937e-006	-7.14566e-006	0	
-2.53358e-006	-7.20376e-006	0	
-2.47174e-006	-7.25912e-006	0	
-2.408e-006	-7.31167e-006	0	
-2.34215e-006	-7.36139e-006	0	
-2.27402e-006	-7.40825e-006	0	
-2.2034e-006	-7.45225e-006	0	
-2.1301e-006	-7.49338e-006	0	
-2.05395e-006	-7.53168e-006	0	
-1.97477e-006	-7.56717e-006	0	
-1.89238e-006	-7.59993e-006	0	
-1.80663e-006	-7.63001e-006	0	
-1.71738e-006	-7.65751e-006	0	
-1.62451e-006	-7.68252e-006	0	
-1.5279e-006	-7.70515e-006	0	
-1.4275e-006	-7.72553e-006	0	
-1.32325e-006	-7.74377e-006	0	
-1.21513e-006	-7.76002e-006	0	
-1.10315e-006	-7.77441e-006	0	
-9.87367e-007	-7.78708e-006	0	
-8.67851e-007	-7.7982e-006	0	
-7.44716e-007	-7.80791e-006	0	
-6.18113e-007	-7.81636e-006	0	
-4.88219e-007	-7.82369e-006	0	
-3.55259e-007	-7.83005e-006	0	
-2.19496e-007	-7.83558e-006	0	
-8.12339e-008	-7.84038e-006	0	
5.91815e-008	-7.84458e-006	0	
2.01367e-007	-7.84826e-006	0	
3.44902e-007	-7.85149e-006	0	
4.89346e-007	-7.85431e-006	0	
6.3424e-007	-7.85674e-006	0	
7.79148e-007	-7.85878e-006	0	
9.23671e-007	-7.86036e-006	0	
1.06756e-006	-7.86136e-006	0	
-1.40427e-018	-3.92931e-018	0	
-2.41397e-007	-1.80691e-007	0	
-5.06255e-007	-3.74747e-007	0	
-7.71116e-007	-5.76143e-007	0	
-1.02464e-006	-7.76813e-007	0	
-1.2631e-006	-9.71528e-007	0	
-1.48637e-006	-1.15824e-006	0	
-1.69529e-006	-1.33656e-006	0	
-1.89084e-006	-1.50676e-006	0	
-2.07396e-006	-1.66941e-006	0	
-2.24547e-006	-1.82514e-006	0	
-2.40608e-006	-1.97458e-006	0	
-2.5564e-006	-2.11831e-006	0	
-2.69697e-006	-2.25686e-006	0	
-2.82825e-006	-2.3907e-006	0	
-2.95066e-006	-2.52023e-006	0	
-3.06453e-006	-2.64582e-006	0	
-3.17018e-006	-2.76781e-006	0	
-3.26788e-006	-2.88648e-006	0	
-3.35785e-006	-3.0021e-006	0	
-3.44033e-006	-3.11492e-006	0	
-3.51551e-006	-3.22516e-006	0	
-3.58358e-006	-3.33304e-006	0	
-3.6447e-006	-3.43877e-006	0	
-3.69905e-006	-3.54255e-006	0	
-3.74679e-006	-3.64457e-006	0	
-3.78808e-006	-3.745e-006	0	
-3.82309e-006	-3.84401e-006	0	
-3.85199e-006	-3.94178e-006	0	
-3.87495e-006	-4.03845e-006	0	
-3.89215e-006	-4.13418e-006	0	
-3.90379e-006	-4.22909e-006	0	
-3.91006e-006	-4.32331e-006	0	
-3.9112e-006	-4.41697e-006	0	
-3.90743e-006	-4.51016e-006	0	
-3.89899e-006	-4.60299e-006	0	
-3.88614e-006	-4.69554e-006	0	
-3.86914e-006	-4.78788e-006	0	
-3.84828e-006	-4.88007e-006	0	
-3.82382e-006	-4.97214e-006	0	
-3.79605e-006	-5.06412e-006	0	
-3.76525e-006	-5.15603e-006	0	
-3.73169e-006	-5.24784e-006	0	
-3.69563e-006	-5.33956e-006	0	
-3.65734e-006	-5.43113e-006	0	
-3.61707e-006	-5.52251e-006	0	
-3.57506e-006	-5.61366e-006	0	
-3.53153e-006	-5.70449e-006	0	
-3.48669e-006	-5.79493e-006	0	
-3.44072e-006	-5.88488e-006	0	
-3.39379e-006	-5.97425e-006	0	
-3.34606e-006	-6.06292e-006	0	
-3.29767e-006	-6.15077e-006	0	
-3.24872e-006	-6.23768e-006	0	
-3.1993e-006	-6.32351e-006	0	
-3.14948e-006	-6.40813e-006	0	
-3.09928e-006	-6.49139e-006	0	
-3.04872e-006	-6.57315e-006	0	
-2.99778e-006	-6.65328e-006	0	
-2.94642e-006	-6.73163e-006	0	
-2.89456e-006	-6.80808e-006	0	
-2.84211e-006	-6.8825e-006	0	
-2.78896e-006	-6.95478e-006	0	
-2.73497e-006	-7.02479e-006	0	
-2.67999e-006	-7.09246e-006	0	
-2.62385e-006	-7.15767e-006	0	
-2.56639e-006	-7.22036e-006	0	
-2.50743e-006	-7.28045e-006	0	
-2.44676e-006	-7.33788e-006	0	
-2.38422e-006	-7.3926e-006	0	
-2.31958e-006	-7.44457e-006	0	
-2.25267e-006	-7.49377e-006	0	
-2.18327e-006	-7.54018e-006	0	
-2.11121e-006	-7.58382e-006	0	
-2.03628e-006	-7.62468e-006	0	
-1.9583e-006	-7.66281e-006	0	
-1.87709e-006	-7.69826e-006	0	
-1.79249e-006	-7.73108e-006	0	
-1.70436e-006	-7.76134e-006	0	
-1.61256e-006	-7.78913e-006	0	
-1.517e-006	-7.81454e-006	0	
-1.41759e-006	-7.83768e-006	0	
-1.31427e-006	-7.85865e-006	0	
-1.20702e-006	-7.87759e-006	0	
-1.09585e-006	-7.8946e-006	0	
-9.80816e-007	-7.90981e-006	0	
-8.61977e-007	-7.92336e-006	0	
-7.39454e-007	-7.93539e-006	0	
-6.13391e-007	-7.94602e-006	0	
-4.83973e-007	-7.95538e-006	0	
-3.51416e-007	-7.96361e-006	0	
-2.15999e-007	-7.97081e-006	0	
-7.80189e-008	-7.97712e-006	0	
6.2173e-008	-7.98263e-006	0	
2.04186e-007	-7.98744e-006	0	
3.47596e-007	-7.99162e-006	0	
4.91956e-007	-7.99524e-006	0	
6.36797e-007	-7.99835e-006	0	
7.81647e-007	-8.00096e-006	0	
9.26041e-007	-8.00307e-006	0	
1.06951e-006	-8.00455e-006	0	
-1.36064e-018	-3.59759e-018	0	
-2.2612e-007	-1.63929e-007	0	
-4.70819e-007	-3.36921e-007	0	
-7.20493e-007	-5.17666e-007	0	
-9.65095e-007	-7.01753e-007	0	
-1.19934e-006	-8.84935e-007	0	
-1.42122e-006	-1.06447e-006	0	
-1.63029e-006	-1.2389e-006	0	
-1.82681e-006	-1.40765e-006	0	
-2.0113e-006	-1.57062e-006	0	
-2.18435e-006	-1.72797e-006	0	
-2.34657e-006	-1.87999e-006	0	
-2.49848e-006	-2.027e-006	0	
-2.64059e-006	-2.16934e-006	0	
-2.77334e-006	-2.30735e-006	0	
-2.89715e-006	-2.44133e-006	0	
-3.01234e-006	-2.57157e-006	0	
-3.11924e-006	-2.69834e-006	0	
-3.2181e-006	-2.82186e-006	0	
-3.30918e-006	-2.94238e-006	0	
-3.39268e-006	-3.0601e-006	0	
-3.46882e-006	-3.17523e-006	0	
-3.53778e-006	-3.28796e-006	0	
-3.59972e-006	-3.39849e-006	0	
-3.65481e-006	-3.507e-006	0	
-3.70323e-006	-3.61367e-006	0	
-3.74512e-006	-3.71867e-006	0	
-3.78067e-006	-3.82216e-006	0	
-3.81003e-006	-3.9243e-006	0	
-3.83339e-006	-4.02525e-006	0	
-3.85092e-006	-4.12514e-006	0	
-3.86283e-006	-4.2241e-006	0	
-3.86933e-006	-4.32227e-006	0	
-3.87063e-006	-4.41975e-006	0	
-3.86698e-006	-4.51666e-006	0	
-3.85861e-006	-4.61308e-006	0	
-3.8458e-006	-4.7091e-006	0	
-3.82882e-006	-4.80478e-006	0	
-3.80793e-006	-4.90019e-006	0	
-3.78344e-006	-4.99536e-006	0	
-3.75563e-006	-5.09033e-006	0	
-3.72478e-006	-5.1851e-006	0	
-3.69117e-006	-5.27966e-006	0	
-3.65507e-006	-5.37401e-006	0	
-3.61676e-006	-5.46811e-006	0	
-3.57649e-006	-5.56192e-006	0	
-3.5345e-006	-5.65539e-006	0	
-3.49103e-006	-5.74846e-006	0	
-3.44628e-006	-5.84104e-006	0	
-3.40046e-006	-5.93306e-006	0	
-3.35373e-006	-6.02442e-006	0	
-3.30626e-006	-6.11502e-006	0	
-3.25818e-006	-6.20474e-006	0	
-3.2096e-006	-6.29347e-006	0	
-3.16062e-006	-6.38109e-006	0	
-3.11129e-006	-6.46746e-006	0	
-3.06166e-006	-6.55246e-006	0	
-3.01173e-006	-6.63596e-006	0	
-2.96148e-006	-6.71782e-006	0	
-2.91087e-006	-6.79792e-006	0	
-2.85982e-006	-6.87613e-006	0	
-2.80824e-006	-6.95235e-006	0	
-2.75601e-006	-7.02646e-006	0	
-2.70299e-006	-7.09836e-006	0	
-2.64903e-006	-7.16794e-006	0	
-2.59395e-006	-7.23514e-006	0	
-2.53759e-006	-7.29986e-006	0	
-2.47976e-006	-7.36203e-006	0	
-2.42027e-006	-7.42161e-006	0	
-2.35891e-006	-7.47854e-006	0	
-2.29549e-006	-7.53277e-006	0	
-2.22979e-006	-7.58429e-006	0	
-2.16163e-006	-7.63307e-006	0	
-2.09079e-006	-7.67912e-006	0	
-2.01709e-006	-7.72244e-006	0	
-1.94032e-006	-7.76306e-006	0	
-1.86031e-006	-7.80102e-006	0	
-1.77689e-006	-7.83637e-006	0	
-1.6899e-006	-7.86917e-006	0	
-1.59922e-006	-7.89949e-006	0	
-1.50473e-006	-7.92741e-006	0	
-1.40634e-006	-7.95301e-006	0	
-1.304e-006	-7.97641e-006	0	
-1.19767e-006	-7.99771e-006	0	
-1.08737e-006	-8.017e-006	0	
-9.73131e-007	-8.03442e-006	0	
-8.55023e-007	-8.05006e-006	0	
-7.33161e-007	-8.06407e-006	0	
-6.07693e-007	-8.07656e-006	0	
-4.78796e-007	-8.08764e-006	0	
-3.46697e-007	-8.09745e-006	0	
-2.11657e-007	-8.10609e-006	0	
-7.39866e-008	-8.11368e-006	0	
6.59627e-008	-8.12032e-006	0	
2.07803e-007	-8.12612e-006	0	
3.51109e-007	-8.13117e-006	0	
4.95425e-007	-8.13554e-006	0	
6.40269e-007	-8.13931e-006	0	
7.85135e-007	-8.14251e-006	0	
9.2948e-007	-8.14516e-006	0	
1.0727e-006	-8.14718e-006	0	
-1.32752e-018	-3.3856e-018	0	
-2.16548e-007	-1.53209e-007	0	
-4.47119e-007	-3.12689e-007	0	
-6.83464e-007	-4.78711e-007	0	
-9.18107e-007	-6.4923e-007	0	
-1.14594e-006	-8.21449e-007	0	
-1.36412e-006	-9.92942e-007	0	
-1.57134e-006	-1.16201e-006	0	
-1.76721e-006	-1.32763e-006	0	
-1.95178e-006	-1.48924e-006	0	
-2.12538e-006	-1.64664e-006	0	
-2.2884e-006	-1.79979e-006	0	
-2.44128e-006	-1.94879e-006	0	
-2.58443e-006	-2.09378e-006	0	
-2.71827e-006	-2.23493e-006	0	
-2.84317e-006	-2.37244e-006	0	
-2.95945e-006	-2.5065e-006	0	
-3.0674e-006	-2.63729e-006	0	
-3.1673e-006	-2.76498e-006	0	
-3.25938e-006	-2.88977e-006	0	
-3.34384e-006	-3.0118e-006	0	
-3.42089e-006	-3.13127e-006	0	
-3.4907e-006	-3.24834e-006	0	
-3.55343e-006	-3.36319e-006	0	
-3.60927e-006	-3.47597e-006	0	
-3.65836e-006	-3.58686e-006	0	
-3.70086e-006	-3.69601e-006	0	
-3.73695e-006	-3.80359e-006	0	
-3.76679e-006	-3.90974e-006	0	
-3.79055e-006	-4.01462e-006	0	
-3.80843e-006	-4.11835e-006	0	
-3.82062e-006	-4.22106e-006	0	
-3.82734e-006	-4.32289e-006	0	
-3.8288e-006	-4.42394e-006	0	
-3.82526e-006	-4.52432e-006	0	
-3.81697e-006	-4.62412e-006	0	
-3.80419e-006	-4.72343e-006	0	
-3.78721e-006	-4.8223e-006	0	
-3.7663e-006	-4.92081e-006	0	
-3.74176e-006	-5.019e-006	0	
-3.71388e-006	-5.11688e-006	0	
-3.68297e-006	-5.21449e-006	0	
-3.64929e-006	-5.31181e-006	0	
-3.61314e-006	-5.40883e-006	0	
-3.57478e-006	-5.50552e-006	0	
-3.53449e-006	-5.60185e-006	0	
-3.49251e-006	-5.69777e-006	0	
-3.44908e-006	-5.7932e-006	0	
-3.40441e-006	-5.8881e-006	0	
-3.35872e-006	-5.98236e-006	0	
-3.31217e-006	-6.07591e-006	0	
-3.26494e-006	-6.16865e-006	0	
-3.21716e-006	-6.26048e-006	0	
-3.16895e-006	-6.35127e-006	0	
-3.12039e-006	-6.44091e-006	0	
-3.07156e-006	-6.52928e-006	0	
-3.02248e-006	-6.61627e-006	0	
-2.97317e-006	-6.70174e-006	0	
-2.92361e-006	-6.78558e-006	0	
-2.87374e-006	-6.86765e-006	0	
-2.82349e-006	-6.94786e-006	0	
-2.77277e-006	-7.02608e-006	0	
-2.72146e-006	-7.10222e-006	0	
-2.66942e-006	-7.17617e-006	0	
-2.61648e-006	-7.24784e-006	0	
-2.56248e-006	-7.31714e-006	0	
-2.50723e-006	-7.384e-006	0	
-2.45054e-006	-7.44836e-006	0	
-2.39222e-006	-7.51014e-006	0	
-2.33207e-006	-7.5693e-006	0	
-2.26987e-006	-7.62581e-006	0	
-2.20542e-006	-7.67962e-006	0	
-2.1385e-006	-7.73073e-006	0	
-2.06893e-006	-7.77912e-006	0	
-1.99648e-006	-7.82479e-006	0	
-1.92096e-006	-7.86778e-006	0	
-1.84218e-006	-7.90811e-006	0	
-1.75997e-006	-7.94581e-006	0	
-1.67418e-006	-7.98094e-006	0	
-1.58466e-006	-8.01356e-006	0	
-1.49129e-006	-8.04374e-006	0	
-1.39399e-006	-8.07157e-006	0	
-1.29267e-006	-8.09712e-006	0	
-1.18732e-006	-8.12049e-006	0	
-1.07794e-006	-8.14178e-006	0	
-9.64557e-007	-8.1611e-006	0	
-8.47234e-007	-8.17855e-006	0	
-7.26082e-007	-8.19425e-006	0	
-6.01246e-007	-8.20831e-006	0	
-4.72907e-007	-8.22085e-006	0	
-3.41288e-007	-8.23199e-006	0	
-2.06649e-007	-8.24184e-006	0	
-6.92933e-008	-8.25052e-006	0	
7.04266e-008	-8.25814e-006	0	
2.12124e-007	-8.2648e-006	0	
3.55373e-007	-8.2706e-006	0	
4.99711e-007	-8.27565e-006	0	
6.44641e-007	-8.28003e-006	0	
7.8963e-007	-8.28379e-006	0	
9.34075e-007	-8.28697e-006	0	
1.0773e-006	-8.28957e-006	0	
-1.30343e-018	-3.23642e-018	0	
-2.1e-007	-1.45852e-007	0	
-4.30393e-007	-2.96244e-007	0	
-6.55912e-007	-4.51906e-007	0	
-8.8116e-007	-6.12024e-007	0	
-1.10182e-006	-7.74938e-007	0	
-1.31497e-006	-9.38851e-007	0	
-1.51889e-006	-1.10223e-006	0	
-1.71275e-006	-1.26395e-006	0	
-1.89623e-006	-1.42325e-006	0	
-2.06937e-006	-1.57966e-006	0	
-2.23238e-006	-1.73292e-006	0	
-2.38554e-006	-1.88292e-006	0	
-2.52919e-006	-2.02963e-006	0	
-2.66367e-006	-2.17308e-006	0	
-2.7893e-006	-2.31333e-006	0	
-2.90638e-006	-2.45047e-006	0	
-3.01517e-006	-2.58461e-006	0	
-3.11594e-006	-2.71585e-006	0	
-3.20888e-006	-2.84432e-006	0	
-3.2942e-006	-2.97013e-006	0	
-3.37209e-006	-3.09343e-006	0	
-3.4427e-006	-3.21436e-006	0	
-3.5062e-006	-3.33306e-006	0	
-3.56275e-006	-3.44969e-006	0	
-3.6125e-006	-3.56438e-006	0	
-3.65561e-006	-3.6773e-006	0	
-3.69224e-006	-3.7886e-006	0	
-3.72254e-006	-3.89841e-006	0	
-3.74671e-006	-4.00688e-006	0	
-3.76492e-006	-4.11414e-006	0	
-3.77738e-006	-4.22032e-006	0	
-3.78429e-006	-4.32554e-006	0	
-3.7859e-006	-4.42991e-006	0	
-3.78246e-006	-4.53354e-006	0	
-3.77421e-006	-4.63652e-006	0	
-3.76144e-006	-4.73895e-006	0	
-3.74442e-006	-4.84087e-006	0	
-3.72345e-006	-4.94236e-006	0	
-3.69882e-006	-5.04346e-006	0	
-3.67085e-006	-5.14421e-006	0	
-3.63982e-006	-5.24462e-006	0	
-3.60604e-006	-5.34469e-006	0	
-3.56979e-006	-5.4444e-006	0	