# vtk DataFile Version 4.1
vtk output
ASCII
DATASET UNSTRUCTURED_GRID

POINTS	30401	float
0	0	0	
0	1	0	
0	2	0	
0	3	0	
0	4	0	
0	5	0	
0	6	0	
0	7	0	
0	8	0	
0	9	0	
0	10	0	
0	11	0	
0	12	0	
0	13	0	
0	14	0	
0	15	0	
0	16	0	
0	17	0	
0	18	0	
0	19	0	
0	20	0	
0	21	0	
0	22	0	
0	23	0	
0	24	0	
0	25	0	
0	26	0	
0	27	0	
0	28	0	
0	29	0	
0	30	0	
0	31	0	
0	32	0	
0	33	0	
0	34	0	
0	35	0	
0	36	0	
0	37	0	
0	38	0	
0	39	0	
0	40	0	
0	41	0	
0	42	0	
0	43	0	
0	44	0	
0	45	0	
0	46	0	
0	47	0	
0	48	0	
0	49	0	
0	50	0	
0	51	0	
0	52	0	
0	53	0	
0	54	0	
0	55	0	
0	56	0	
0	57	0	
0	58	0	
0	59	0	
0	60	0	
0	61	0	
0	62	0	
0	63	0	
0	64	0	
0	65	0	
0	66	0	
0	67	0	
0	68	0	
0	69	0	
0	70	0	
0	71	0	
0	72	0	
0	73	0	
0	74	0	
0	75	0	
0	76	0	
0	77	0	
0	78	0	
0	79	0	
0	80	0	
0	81	0	
0	82	0	
0	83	0	
0	84	0	
0	85	0	
0	86	0	
0	87	0	
0	88	0	
0	89	0	
0	90	0	
0	91	0	
0	92	0	
0	93	0	
0	94	0	
0	95	0	
0	96	0	
0	97	0	
0	98	0	
0	99	0	
0	100	0	
1	0	0	
1	1	0	
1	2	0	
1	3	0	
1	4	0	
1	5	0	
1	6	0	
1	7	0	
1	8	0	
1	9	0	
1	10	0	
1	11	0	
1	12	0	
1	13	0	
1	14	0	
1	15	0	
1	16	0	
1	17	0	
1	18	0	
1	19	0	
1	20	0	
1	21	0	
1	22	0	
1	23	0	
1	24	0	
1	25	0	
1	26	0	
1	27	0	
1	28	0	
1	29	0	
1	30	0	
1	31	0	
1	32	0	
1	33	0	
1	34	0	
1	35	0	
1	36	0	
1	37	0	
1	38	0	
1	39	0	
1	40	0	
1	41	0	
1	42	0	
1	43	0	
1	44	0	
1	45	0	
1	46	0	
1	47	0	
1	48	0	
1	49	0	
1	50	0	
1	51	0	
1	52	0	
1	53	0	
1	54	0	
1	55	0	
1	56	0	
1	57	0	
1	58	0	
1	59	0	
1	60	0	
1	61	0	
1	62	0	
1	63	0	
1	64	0	
1	65	0	
1	66	0	
1	67	0	
1	68	0	
1	69	0	
1	70	0	
1	71	0	
1	72	0	
1	73	0	
1	74	0	
1	75	0	
1	76	0	
1	77	0	
1	78	0	
1	79	0	
1	80	0	
1	81	0	
1	82	0	
1	83	0	
1	84	0	
1	85	0	
1	86	0	
1	87	0	
1	88	0	
1	89	0	
1	90	0	
1	91	0	
1	92	0	
1	93	0	
1	94	0	
1	95	0	
1	96	0	
1	97	0	
1	98	0	
1	99	0	
1	100	0	
2	0	0	
2	1	0	
2	2	0	
2	3	0	
2	4	0	
2	5	0	
2	6	0	
2	7	0	
2	8	0	
2	9	0	
2	10	0	
2	11	0	
2	12	0	
2	13	0	
2	14	0	
2	15	0	
2	16	0	
2	17	0	
2	18	0	
2	19	0	
2	20	0	
2	21	0	
2	22	0	
2	23	0	
2	24	0	
2	25	0	
2	26	0	
2	27	0	
2	28	0	
2	29	0	
2	30	0	
2	31	0	
2	32	0	
2	33	0	
2	34	0	
2	35	0	
2	36	0	
2	37	0	
2	38	0	
2	39	0	
2	40	0	
2	41	0	
2	42	0	
2	43	0	
2	44	0	
2	45	0	
2	46	0	
2	47	0	
2	48	0	
2	49	0	
2	50	0	
2	51	0	
2	52	0	
2	53	0	
2	54	0	
2	55	0	
2	56	0	
2	57	0	
2	58	0	
2	59	0	
2	60	0	
2	61	0	
2	62	0	
2	63	0	
2	64	0	
2	65	0	
2	66	0	
2	67	0	
2	68	0	
2	69	0	
2	70	0	
2	71	0	
2	72	0	
2	73	0	
2	74	0	
2	75	0	
2	76	0	
2	77	0	
2	78	0	
2	79	0	
2	80	0	
2	81	0	
2	82	0	
2	83	0	
2	84	0	
2	85	0	
2	86	0	
2	87	0	
2	88	0	
2	89	0	
2	90	0	
2	91	0	
2	92	0	
2	93	0	
2	94	0	
2	95	0	
2	96	0	
2	97	0	
2	98	0	
2	99	0	
2	100	0	
3	0	0	
3	1	0	
3	2	0	
3	3	0	
3	4	0	
3	5	0	
3	6	0	
3	7	0	
3	8	0	
3	9	0	
3	10	0	
3	11	0	
3	12	0	
3	13	0	
3	14	0	
3	15	0	
3	16	0	
3	17	0	
3	18	0	
3	19	0	
3	20	0	
3	21	0	
3	22	0	
3	23	0	
3	24	0	
3	25	0	
3	26	0	
3	27	0	
3	28	0	
3	29	0	
3	30	0	
3	31	0	
3	32	0	
3	33	0	
3	34	0	
3	35	0	
3	36	0	
3	37	0	
3	38	0	
3	39	0	
3	40	0	
3	41	0	
3	42	0	
3	43	0	
3	44	0	
3	45	0	
3	46	0	
3	47	0	
3	48	0	
3	49	0	
3	50	0	
3	51	0	
3	52	0	
3	53	0	
3	54	0	
3	55	0	
3	56	0	
3	57	0	
3	58	0	
3	59	0	
3	60	0	
3	61	0	
3	62	0	
3	63	0	
3	64	0	
3	65	0	
3	66	0	
3	67	0	
3	68	0	
3	69	0	
3	70	0	
3	71	0	
3	72	0	
3	73	0	
3	74	0	
3	75	0	
3	76	0	
3	77	0	
3	78	0	
3	79	0	
3	80	0	
3	81	0	
3	82	0	
3	83	0	
3	84	0	
3	85	0	
3	86	0	
3	87	0	
3	88	0	
3	89	0	
3	90	0	
3	91	0	
3	92	0	
3	93	0	
3	94	0	
3	95	0	
3	96	0	
3	97	0	
3	98	0	
3	99	0	
3	100	0	
4	0	0	
4	1	0	
4	2	0	
4	3	0	
4	4	0	
4	5	0	
4	6	0	
4	7	0	
4	8	0	
4	9	0	
4	10	0	
4	11	0	
4	12	0	
4	13	0	
4	14	0	
4	15	0	
4	16	0	
4	17	0	
4	18	0	
4	19	0	
4	20	0	
4	21	0	
4	22	0	
4	23	0	
4	24	0	
4	25	0	
4	26	0	
4	27	0	
4	28	0	
4	29	0	
4	30	0	
4	31	0	
4	32	0	
4	33	0	
4	34	0	
4	35	0	
4	36	0	
4	37	0	
4	38	0	
4	39	0	
4	40	0	
4	41	0	
4	42	0	
4	43	0	
4	44	0	
4	45	0	
4	46	0	
4	47	0	
4	48	0	
4	49	0	
4	50	0	
4	51	0	
4	52	0	
4	53	0	
4	54	0	
4	55	0	
4	56	0	
4	57	0	
4	58	0	
4	59	0	
4	60	0	
4	61	0	
4	62	0	
4	63	0	
4	64	0	
4	65	0	
4	66	0	
4	67	0	
4	68	0	
4	69	0	
4	70	0	
4	71	0	
4	72	0	
4	73	0	
4	74	0	
4	75	0	
4	76	0	
4	77	0	
4	78	0	
4	79	0	
4	80	0	
4	81	0	
4	82	0	
4	83	0	
4	84	0	
4	85	0	
4	86	0	
4	87	0	
4	88	0	
4	89	0	
4	90	0	
4	91	0	
4	92	0	
4	93	0	
4	94	0	
4	95	0	
4	96	0	
4	97	0	
4	98	0	
4	99	0	
4	100	0	
5	0	0	
5	1	0	
5	2	0	
5	3	0	
5	4	0	
5	5	0	
5	6	0	
5	7	0	
5	8	0	
5	9	0	
5	10	0	
5	11	0	
5	12	0	
5	13	0	
5	14	0	
5	15	0	
5	16	0	
5	17	0	
5	18	0	
5	19	0	
5	20	0	
5	21	0	
5	22	0	
5	23	0	
5	24	0	
5	25	0	
5	26	0	
5	27	0	
5	28	0	
5	29	0	
5	30	0	
5	31	0	
5	32	0	
5	33	0	
5	34	0	
5	35	0	
5	36	0	
5	37	0	
5	38	0	
5	39	0	
5	40	0	
5	41	0	
5	42	0	
5	43	0	
5	44	0	
5	45	0	
5	46	0	
5	47	0	
5	48	0	
5	49	0	
5	50	0	
5	51	0	
5	52	0	
5	53	0	
5	54	0	
5	55	0	
5	56	0	
5	57	0	
5	58	0	
5	59	0	
5	60	0	
5	61	0	
5	62	0	
5	63	0	
5	64	0	
5	65	0	
5	66	0	
5	67	0	
5	68	0	
5	69	0	
5	70	0	
5	71	0	
5	72	0	
5	73	0	
5	74	0	
5	75	0	
5	76	0	
5	77	0	
5	78	0	
5	79	0	
5	80	0	
5	81	0	
5	82	0	
5	83	0	
5	84	0	
5	85	0	
5	86	0	
5	87	0	
5	88	0	
5	89	0	
5	90	0	
5	91	0	
5	92	0	
5	93	0	
5	94	0	
5	95	0	
5	96	0	
5	97	0	
5	98	0	
5	99	0	
5	100	0	
6	0	0	
6	1	0	
6	2	0	
6	3	0	
6	4	0	
6	5	0	
6	6	0	
6	7	0	
6	8	0	
6	9	0	
6	10	0	
6	11	0	
6	12	0	
6	13	0	
6	14	0	
6	15	0	
6	16	0	
6	17	0	
6	18	0	
6	19	0	
6	20	0	
6	21	0	
6	22	0	
6	23	0	
6	24	0	
6	25	0	
6	26	0	
6	27	0	
6	28	0	
6	29	0	
6	30	0	
6	31	0	
6	32	0	
6	33	0	
6	34	0	
6	35	0	
6	36	0	
6	37	0	
6	38	0	
6	39	0	
6	40	0	
6	41	0	
6	42	0	
6	43	0	
6	44	0	
6	45	0	
6	46	0	
6	47	0	
6	48	0	
6	49	0	
6	50	0	
6	51	0	
6	52	0	
6	53	0	
6	54	0	
6	55	0	
6	56	0	
6	57	0	
6	58	0	
6	59	0	
6	60	0	
6	61	0	
6	62	0	
6	63	0	
6	64	0	
6	65	0	
6	66	0	
6	67	0	
6	68	0	
6	69	0	
6	70	0	
6	71	0	
6	72	0	
6	73	0	
6	74	0	
6	75	0	
6	76	0	
6	77	0	
6	78	0	
6	79	0	
6	80	0	
6	81	0	
6	82	0	
6	83	0	
6	84	0	
6	85	0	
6	86	0	
6	87	0	
6	88	0	
6	89	0	
6	90	0	
6	91	0	
6	92	0	
6	93	0	
6	94	0	
6	95	0	
6	96	0	
6	97	0	
6	98	0	
6	99	0	
6	100	0	
7	0	0	
7	1	0	
7	2	0	
7	3	0	
7	4	0	
7	5	0	
7	6	0	
7	7	0	
7	8	0	
7	9	0	
7	10	0	
7	11	0	
7	12	0	
7	13	0	
7	14	0	
7	15	0	
7	16	0	
7	17	0	
7	18	0	
7	19	0	
7	20	0	
7	21	0	
7	22	0	
7	23	0	
7	24	0	
7	25	0	
7	26	0	
7	27	0	
7	28	0	
7	29	0	
7	30	0	
7	31	0	
7	32	0	
7	33	0	
7	34	0	
7	35	0	
7	36	0	
7	37	0	
7	38	0	
7	39	0	
7	40	0	
7	41	0	
7	42	0	
7	43	0	
7	44	0	
7	45	0	
7	46	0	
7	47	0	
7	48	0	
7	49	0	
7	50	0	
7	51	0	
7	52	0	
7	53	0	
7	54	0	
7	55	0	
7	56	0	
7	57	0	
7	58	0	
7	59	0	
7	60	0	
7	61	0	
7	62	0	
7	63	0	
7	64	0	
7	65	0	
7	66	0	
7	67	0	
7	68	0	
7	69	0	
7	70	0	
7	71	0	
7	72	0	
7	73	0	
7	74	0	
7	75	0	
7	76	0	
7	77	0	
7	78	0	
7	79	0	
7	80	0	
7	81	0	
7	82	0	
7	83	0	
7	84	0	
7	85	0	
7	86	0	
7	87	0	
7	88	0	
7	89	0	
7	90	0	
7	91	0	
7	92	0	
7	93	0	
7	94	0	
7	95	0	
7	96	0	
7	97	0	
7	98	0	
7	99	0	
7	100	0	
8	0	0	
8	1	0	
8	2	0	
8	3	0	
8	4	0	
8	5	0	
8	6	0	
8	7	0	
8	8	0	
8	9	0	
8	10	0	
8	11	0	
8	12	0	
8	13	0	
8	14	0	
8	15	0	
8	16	0	
8	17	0	
8	18	0	
8	19	0	
8	20	0	
8	21	0	
8	22	0	
8	23	0	
8	24	0	
8	25	0	
8	26	0	
8	27	0	
8	28	0	
8	29	0	
8	30	0	
8	31	0	
8	32	0	
8	33	0	
8	34	0	
8	35	0	
8	36	0	
8	37	0	
8	38	0	
8	39	0	
8	40	0	
8	41	0	
8	42	0	
8	43	0	
8	44	0	
8	45	0	
8	46	0	
8	47	0	
8	48	0	
8	49	0	
8	50	0	
8	51	0	
8	52	0	
8	53	0	
8	54	0	
8	55	0	
8	56	0	
8	57	0	
8	58	0	
8	59	0	
8	60	0	
8	61	0	
8	62	0	
8	63	0	
8	64	0	
8	65	0	
8	66	0	
8	67	0	
8	68	0	
8	69	0	
8	70	0	
8	71	0	
8	72	0	
8	73	0	
8	74	0	
8	75	0	
8	76	0	
8	77	0	
8	78	0	
8	79	0	
8	80	0	
8	81	0	
8	82	0	
8	83	0	
8	84	0	
8	85	0	
8	86	0	
8	87	0	
8	88	0	
8	89	0	
8	90	0	
8	91	0	
8	92	0	
8	93	0	
8	94	0	
8	95	0	
8	96	0	
8	97	0	
8	98	0	
8	99	0	
8	100	0	
9	0	0	
9	1	0	
9	2	0	
9	3	0	
9	4	0	
9	5	0	
9	6	0	
9	7	0	
9	8	0	
9	9	0	
9	10	0	
9	11	0	
9	12	0	
9	13	0	
9	14	0	
9	15	0	
9	16	0	
9	17	0	
9	18	0	
9	19	0	
9	20	0	
9	21	0	
9	22	0	
9	23	0	
9	24	0	
9	25	0	
9	26	0	
9	27	0	
9	28	0	
9	29	0	
9	30	0	
9	31	0	
9	32	0	
9	33	0	
9	34	0	
9	35	0	
9	36	0	
9	37	0	
9	38	0	
9	39	0	
9	40	0	
9	41	0	
9	42	0	
9	43	0	
9	44	0	
9	45	0	
9	46	0	
9	47	0	
9	48	0	
9	49	0	
9	50	0	
9	51	0	
9	52	0	
9	53	0	
9	54	0	
9	55	0	
9	56	0	
9	57	0	
9	58	0	
9	59	0	
9	60	0	
9	61	0	
9	62	0	
9	63	0	
9	64	0	
9	65	0	
9	66	0	
9	67	0	
9	68	0	
9	69	0	
9	70	0	
9	71	0	
9	72	0	
9	73	0	
9	74	0	
9	75	0	
9	76	0	
9	77	0	
9	78	0	
9	79	0	
9	80	0	
9	81	0	
9	82	0	
9	83	0	
9	84	0	
9	85	0	
9	86	0	
9	87	0	
9	88	0	
9	89	0	
9	90	0	
9	91	0	
9	92	0	
9	93	0	
9	94	0	
9	95	0	
9	96	0	
9	97	0	
9	98	0	
9	99	0	
9	100	0	
10	0	0	
10	1	0	
10	2	0	
10	3	0	
10	4	0	
10	5	0	
10	6	0	
10	7	0	
10	8	0	
10	9	0	
10	10	0	
10	11	0	
10	12	0	
10	13	0	
10	14	0	
10	15	0	
10	16	0	
10	17	0	
10	18	0	
10	19	0	
10	20	0	
10	21	0	
10	22	0	
10	23	0	
10	24	0	
10	25	0	
10	26	0	
10	27	0	
10	28	0	
10	29	0	
10	30	0	
10	31	0	
10	32	0	
10	33	0	
10	34	0	
10	35	0	
10	36	0	
10	37	0	
10	38	0	
10	39	0	
10	40	0	
10	41	0	
10	42	0	
10	43	0	
10	44	0	
10	45	0	
10	46	0	
10	47	0	
10	48	0	
10	49	0	
10	50	0	
10	51	0	
10	52	0	
10	53	0	
10	54	0	
10	55	0	
10	56	0	
10	57	0	
10	58	0	
10	59	0	
10	60	0	
10	61	0	
10	62	0	
10	63	0	
10	64	0	
10	65	0	
10	66	0	
10	67	0	
10	68	0	
10	69	0	
10	70	0	
10	71	0	
10	72	0	
10	73	0	
10	74	0	
10	75	0	
10	76	0	
10	77	0	
10	78	0	
10	79	0	
10	80	0	
10	81	0	
10	82	0	
10	83	0	
10	84	0	
10	85	0	
10	86	0	
10	87	0	
10	88	0	
10	89	0	
10	90	0	
10	91	0	
10	92	0	
10	93	0	
10	94	0	
10	95	0	
10	96	0	
10	97	0	
10	98	0	
10	99	0	
10	100	0	
11	0	0	
11	1	0	
11	2	0	
11	3	0	
11	4	0	
11	5	0	
11	6	0	
11	7	0	
11	8	0	
11	9	0	
11	10	0	
11	11	0	
11	12	0	
11	13	0	
11	14	0	
11	15	0	
11	16	0	
11	17	0	
11	18	0	
11	19	0	
11	20	0	
11	21	0	
11	22	0	
11	23	0	
11	24	0	
11	25	0	
11	26	0	
11	27	0	
11	28	0	
11	29	0	
11	30	0	
11	31	0	
11	32	0	
11	33	0	
11	34	0	
11	35	0	
11	36	0	
11	37	0	
11	38	0	
11	39	0	
11	40	0	
11	41	0	
11	42	0	
11	43	0	
11	44	0	
11	45	0	
11	46	0	
11	47	0	
11	48	0	
11	49	0	
11	50	0	
11	51	0	
11	52	0	
11	53	0	
11	54	0	
11	55	0	
11	56	0	
11	57	0	
11	58	0	
11	59	0	
11	60	0	
11	61	0	
11	62	0	
11	63	0	
11	64	0	
11	65	0	
11	66	0	
11	67	0	
11	68	0	
11	69	0	
11	70	0	
11	71	0	
11	72	0	
11	73	0	
11	74	0	
11	75	0	
11	76	0	
11	77	0	
11	78	0	
11	79	0	
11	80	0	
11	81	0	
11	82	0	
11	83	0	
11	84	0	
11	85	0	
11	86	0	
11	87	0	
11	88	0	
11	89	0	
11	90	0	
11	91	0	
11	92	0	
11	93	0	
11	94	0	
11	95	0	
11	96	0	
11	97	0	
11	98	0	
11	99	0	
11	100	0	
12	0	0	
12	1	0	
12	2	0	
12	3	0	
12	4	0	
12	5	0	
12	6	0	
12	7	0	
12	8	0	
12	9	0	
12	10	0	
12	11	0	
12	12	0	
12	13	0	
[...]
POINT_DATA	30401
VECTORS d float
-9.85834e-018	-1.77986e-017	0	
-5.3511e-007	-5.42761e-007	0	
-9.34206e-007	-8.55702e-007	0	
-1.29093e-006	-1.09152e-006	0	
-1.6146e-006	-1.2761e-006	0	
-1.91097e-006	-1.41481e-006	0	
-2.17694e-006	-1.51065e-006	0	
-2.39604e-006	-1.55217e-006	0	
-2.53867e-006	-1.55355e-006	0	
-2.71037e-006	-1.5878e-006	0	
-2.9749e-006	-1.88065e-006	0	
-3.22066e-006	-2.17583e-006	0	
-3.46243e-006	-2.46852e-006	0	
-3.72665e-006	-2.78855e-006	0	
-4.02796e-006	-3.09062e-006	0	
-4.33105e-006	-3.36e-006	0	
-4.61277e-006	-3.60637e-006	0	
-4.86821e-006	-3.83537e-006	0	
-5.09822e-006	-4.04957e-006	0	
-5.30463e-006	-4.25149e-006	0	
-5.49082e-006	-4.44332e-006	0	
-5.66072e-006	-4.62564e-006	0	
-5.81753e-006	-4.79804e-006	0	
-5.96296e-006	-4.95954e-006	0	
-6.09732e-006	-5.10957e-006	0	
-6.22005e-006	-5.24774e-006	0	
-6.33021e-006	-5.3744e-006	0	
-6.42669e-006	-5.49019e-006	0	
-6.5085e-006	-5.59607e-006	0	
-6.57488e-006	-5.69323e-006	0	
-6.62528e-006	-5.78288e-006	0	
-6.65938e-006	-5.86626e-006	0	
-6.67707e-006	-5.9446e-006	0	
-6.67847e-006	-6.01908e-006	0	
-6.66388e-006	-6.09088e-006	0	
-6.63377e-006	-6.16101e-006	0	
-6.58882e-006	-6.23042e-006	0	
-6.52982e-006	-6.29996e-006	0	
-6.45773e-006	-6.37032e-006	0	
-6.37356e-006	-6.44213e-006	0	
-6.27837e-006	-6.51583e-006	0	
-6.17326e-006	-6.59175e-006	0	
-6.05925e-006	-6.67011e-006	0	
-5.93737e-006	-6.75102e-006	0	
-5.80864e-006	-6.83456e-006	0	
-5.67398e-006	-6.92064e-006	0	
-5.5343e-006	-7.00916e-006	0	
-5.39041e-006	-7.09997e-006	0	
-5.24307e-006	-7.19288e-006	0	
-5.09304e-006	-7.28767e-006	0	
-4.94098e-006	-7.38404e-006	0	
-4.78749e-006	-7.4817e-006	0	
-4.63314e-006	-7.58033e-006	0	
-4.47842e-006	-7.67954e-006	0	
-4.32377e-006	-7.77899e-006	0	
-4.16958e-006	-7.87831e-006	0	
-4.01615e-006	-7.97705e-006	0	
-3.86373e-006	-8.07481e-006	0	
-3.71255e-006	-8.17118e-006	0	
-3.56272e-006	-8.26573e-006	0	
-3.41434e-006	-8.35804e-006	0	
-3.26741e-006	-8.44771e-006	0	
-3.12188e-006	-8.53436e-006	0	
-2.97767e-006	-8.61762e-006	0	
-2.83463e-006	-8.69715e-006	0	
-2.69255e-006	-8.77263e-006	0	
-2.55115e-006	-8.84377e-006	0	
-2.4101e-006	-8.91035e-006	0	
-2.26908e-006	-8.97218e-006	0	
-2.12774e-006	-9.02913e-006	0	
-1.98568e-006	-9.08106e-006	0	
-1.8425e-006	-9.12793e-006	0	
-1.69778e-006	-9.16972e-006	0	
-1.55113e-006	-9.20646e-006	0	
-1.40217e-006	-9.23823e-006	0	
-1.25056e-006	-9.26512e-006	0	
-1.09593e-006	-9.28728e-006	0	
-9.37953e-007	-9.30489e-006	0	
-7.76338e-007	-9.31815e-006	0	
-6.10807e-007	-9.32727e-006	0	
-4.411e-007	-9.33251e-006	0	
-2.67001e-007	-9.33411e-006	0	
-8.8302e-008	-9.33234e-006	0	
9.51734e-008	-9.32751e-006	0	
2.83551e-007	-9.31995e-006	0	
4.76921e-007	-9.31001e-006	0	
6.75342e-007	-9.29803e-006	0	
8.78832e-007	-9.28442e-006	0	
1.08735e-006	-9.26958e-006	0	
1.30078e-006	-9.25395e-006	0	
1.51896e-006	-9.23796e-006	0	
1.74168e-006	-9.22204e-006	0	
1.96865e-006	-9.20664e-006	0	
2.19948e-006	-9.19221e-006	0	
2.43371e-006	-9.17914e-006	0	
2.67077e-006	-9.16782e-006	0	
2.91001e-006	-9.15858e-006	0	
3.15066e-006	-9.15164e-006	0	
3.39188e-006	-9.14705e-006	0	
3.63287e-006	-9.14463e-006	0	
3.87374e-006	-9.14361e-006	0	
-2.99875e-018	-5.84748e-018	0	
-4.1167e-007	-2.92656e-007	0	
-8.21642e-007	-5.71083e-007	0	
-1.19899e-006	-8.17297e-007	0	
-1.54143e-006	-1.01848e-006	0	
-1.85428e-006	-1.1827e-006	0	
-2.13531e-006	-1.31398e-006	0	
-2.37424e-006	-1.41723e-006	0	
-2.5513e-006	-1.50605e-006	0	
-2.75447e-006	-1.59898e-006	0	
-2.855e-006	-1.59988e-006	0	
-3.09628e-006	-1.91454e-006	0	
-3.32734e-006	-2.21181e-006	0	
-3.59145e-006	-2.51477e-006	0	
-3.90572e-006	-2.81278e-006	0	
-4.21868e-006	-3.09126e-006	0	
-4.50623e-006	-3.35887e-006	0	
-4.76859e-006	-3.61143e-006	0	
-5.00493e-006	-3.84768e-006	0	
-5.21648e-006	-4.06948e-006	0	
-5.40721e-006	-4.27868e-006	0	
-5.58171e-006	-4.47579e-006	0	
-5.74335e-006	-4.66078e-006	0	
-5.89374e-006	-4.83378e-006	0	
-6.03313e-006	-4.99506e-006	0	
-6.16081e-006	-5.1449e-006	0	
-6.27564e-006	-5.28385e-006	0	
-6.37644e-006	-5.41271e-006	0	
-6.46212e-006	-5.53238e-006	0	
-6.53188e-006	-5.6439e-006	0	
-6.58517e-006	-5.74832e-006	0	
-6.62167e-006	-5.8467e-006	0	
-6.64129e-006	-5.94006e-006	0	
-6.64415e-006	-6.02942e-006	0	
-6.63057e-006	-6.11577e-006	0	
-6.60108e-006	-6.2e-006	0	
-6.55638e-006	-6.2829e-006	0	
-6.49733e-006	-6.36518e-006	0	
-6.42491e-006	-6.44748e-006	0	
-6.3402e-006	-6.53031e-006	0	
-6.24432e-006	-6.6141e-006	0	
-6.13838e-006	-6.69917e-006	0	
-6.02349e-006	-6.78575e-006	0	
-5.90069e-006	-6.87399e-006	0	
-5.77102e-006	-6.96394e-006	0	
-5.63546e-006	-7.0556e-006	0	
-5.49493e-006	-7.14892e-006	0	
-5.35025e-006	-7.24378e-006	0	
-5.20221e-006	-7.34005e-006	0	
-5.05157e-006	-7.43753e-006	0	
-4.89901e-006	-7.536e-006	0	
-4.74515e-006	-7.63522e-006	0	
-4.59056e-006	-7.73489e-006	0	
-4.43575e-006	-7.83471e-006	0	
-4.28116e-006	-7.93437e-006	0	
-4.12717e-006	-8.03355e-006	0	
-3.97412e-006	-8.13187e-006	0	
-3.82226e-006	-8.22899e-006	0	
-3.67179e-006	-8.32453e-006	0	
-3.52285e-006	-8.41815e-006	0	
-3.37552e-006	-8.50948e-006	0	
-3.2298e-006	-8.59817e-006	0	
-3.08562e-006	-8.6839e-006	0	
-2.94291e-006	-8.76635e-006	0	
-2.80151e-006	-8.84521e-006	0	
-2.66118e-006	-8.92023e-006	0	
-2.52164e-006	-8.99117e-006	0	
-2.38254e-006	-9.05783e-006	0	
-2.24353e-006	-9.12004e-006	0	
-2.10424e-006	-9.17766e-006	0	
-1.96428e-006	-9.23063e-006	0	
-1.8232e-006	-9.27887e-006	0	
-1.68059e-006	-9.32239e-006	0	
-1.53602e-006	-9.3612e-006	0	
-1.38912e-006	-9.39536e-006	0	
-1.2395e-006	-9.42497e-006	0	
-1.08681e-006	-9.45016e-006	0	
-9.30705e-007	-9.47108e-006	0	
-7.70877e-007	-9.4879e-006	0	
-6.0703e-007	-9.50084e-006	0	
-4.38908e-007	-9.51008e-006	0	
-2.66288e-007	-9.51588e-006	0	
-8.89493e-008	-9.51847e-006	0	
9.32929e-008	-9.51812e-006	0	
2.80577e-007	-9.51514e-006	0	
4.72999e-007	-9.50981e-006	0	
6.70625e-007	-9.50247e-006	0	
8.73477e-007	-9.49346e-006	0	
1.08152e-006	-9.48314e-006	0	
1.29465e-006	-9.47189e-006	0	
1.5127e-006	-9.46008e-006	0	
1.73547e-006	-9.4481e-006	0	
1.96265e-006	-9.43631e-006	0	
2.19387e-006	-9.42508e-006	0	
2.42864e-006	-9.41475e-006	0	
2.6664e-006	-9.40561e-006	0	
2.90644e-006	-9.39792e-006	0	
3.14795e-006	-9.39187e-006	0	
3.39004e-006	-9.38757e-006	0	
3.63183e-006	-9.38503e-006	0	
3.87258e-006	-9.384e-006	0	
-1.98273e-018	-4.44828e-018	0	
-3.52256e-007	-2.09215e-007	0	
-7.40622e-007	-4.34607e-007	0	
-1.11631e-006	-6.54951e-007	0	
-1.46623e-006	-8.55813e-007	0	
-1.78804e-006	-1.03446e-006	0	
-2.0776e-006	-1.19164e-006	0	
-2.32854e-006	-1.32834e-006	0	
-2.54223e-006	-1.43898e-006	0	
-2.74018e-006	-1.52727e-006	0	
-2.87113e-006	-1.59046e-006	0	
-2.9522e-006	-1.62763e-006	0	
-3.20293e-006	-1.95003e-006	0	
-3.43058e-006	-2.25435e-006	0	
-3.78755e-006	-2.56354e-006	0	
-4.09907e-006	-2.85745e-006	0	
-4.39023e-006	-3.15188e-006	0	
-4.66128e-006	-3.42684e-006	0	
-4.90533e-006	-3.68151e-006	0	
-5.12195e-006	-3.91969e-006	0	
-5.31711e-006	-4.14431e-006	0	
-5.49671e-006	-4.35544e-006	0	
-5.66393e-006	-4.55262e-006	0	
-5.81983e-006	-4.73656e-006	0	
-5.96452e-006	-4.90819e-006	0	
-6.09728e-006	-5.0684e-006	0	
-6.21679e-006	-5.21785e-006	0	
-6.32179e-006	-5.35759e-006	0	
-6.41116e-006	-5.48866e-006	0	
-6.48411e-006	-5.61208e-006	0	
-6.54014e-006	-5.7288e-006	0	
-6.57898e-006	-5.83972e-006	0	
-6.60052e-006	-5.94571e-006	0	
-6.60487e-006	-6.04763e-006	0	
-6.59237e-006	-6.14635e-006	0	
-6.56361e-006	-6.24267e-006	0	
-6.51931e-006	-6.33727e-006	0	
-6.4604e-006	-6.43077e-006	0	
-6.38788e-006	-6.52371e-006	0	
-6.30287e-006	-6.61656e-006	0	
-6.20654e-006	-6.70969e-006	0	
-6.10006e-006	-6.8034e-006	0	
-5.98456e-006	-6.8979e-006	0	
-5.86113e-006	-6.99333e-006	0	
-5.73082e-006	-7.08975e-006	0	
-5.59464e-006	-7.18719e-006	0	
-5.45352e-006	-7.28561e-006	0	
-5.30831e-006	-7.38493e-006	0	
-5.15981e-006	-7.48505e-006	0	
-5.00879e-006	-7.58581e-006	0	
-4.85595e-006	-7.68703e-006	0	
-4.7019e-006	-7.7885e-006	0	
-4.54724e-006	-7.88998e-006	0	
-4.39249e-006	-7.99121e-006	0	
-4.23808e-006	-8.09193e-006	0	
-4.08443e-006	-8.19185e-006	0	
-3.93186e-006	-8.29067e-006	0	
-3.78063e-006	-8.38805e-006	0	
-3.63093e-006	-8.48371e-006	0	
-3.48291e-006	-8.57731e-006	0	
-3.33665e-006	-8.66855e-006	0	
-3.19213e-006	-8.75714e-006	0	
-3.04932e-006	-8.84277e-006	0	
-2.9081e-006	-8.92518e-006	0	
-2.7683e-006	-9.00409e-006	0	
-2.62967e-006	-9.0793e-006	0	
-2.49192e-006	-9.15059e-006	0	
-2.35469e-006	-9.21779e-006	0	
-2.21763e-006	-9.28075e-006	0	
-2.08032e-006	-9.33936e-006	0	
-1.94235e-006	-9.39355e-006	0	
-1.80329e-006	-9.44327e-006	0	
-1.66269e-006	-9.48853e-006	0	
-1.52012e-006	-9.52933e-006	0	
-1.37519e-006	-9.56575e-006	0	
-1.22749e-006	-9.59786e-006	0	
-1.07666e-006	-9.62579e-006	0	
-9.22351e-007	-9.64967e-006	0	
-7.64249e-007	-9.66965e-006	0	
-6.02046e-007	-9.68593e-006	0	
-4.35481e-007	-9.69867e-006	0	
-2.64315e-007	-9.7081e-006	0	
-8.83216e-008	-9.71443e-006	0	
9.26879e-008	-9.71791e-006	0	
2.78864e-007	-9.71879e-006	0	
4.70304e-007	-9.71735e-006	0	
6.67078e-007	-9.71386e-006	0	
8.6922e-007	-9.70865e-006	0	
1.0767e-006	-9.70203e-006	0	
1.28941e-006	-9.69431e-006	0	
1.50721e-006	-9.68583e-006	0	
1.72987e-006	-9.67692e-006	0	
1.95711e-006	-9.66791e-006	0	
2.18852e-006	-9.6591e-006	0	
2.42364e-006	-9.65079e-006	0	
2.66187e-006	-9.64324e-006	0	
2.90253e-006	-9.6367e-006	0	
3.14476e-006	-9.63137e-006	0	
3.38767e-006	-9.62741e-006	0	
3.63025e-006	-9.62492e-006	0	
3.87136e-006	-9.62381e-006	0	
-1.9664e-018	-3.95853e-018	0	
-3.31461e-007	-1.80274e-007	0	
-6.90188e-007	-3.72161e-007	0	
-1.05048e-006	-5.69849e-007	0	
-1.3967e-006	-7.63901e-007	0	
-1.7201e-006	-9.47811e-007	0	
-2.01506e-006	-1.1185e-006	0	
-2.27789e-006	-1.27311e-006	0	
-2.51068e-006	-1.40872e-006	0	
-2.71443e-006	-1.5261e-006	0	
-2.88061e-006	-1.62623e-006	0	
-2.99562e-006	-1.72384e-006	0	
-3.15179e-006	-1.81645e-006	0	
-3.13482e-006	-1.80133e-006	0	
-3.65515e-006	-2.29828e-006	0	
-3.95746e-006	-2.66106e-006	0	
-4.25907e-006	-2.9926e-006	0	
-4.54908e-006	-3.28805e-006	0	
-4.80281e-006	-3.55641e-006	0	
-5.023e-006	-3.80833e-006	0	
-5.22158e-006	-4.04635e-006	0	
-5.40663e-006	-4.26902e-006	0	
-5.58037e-006	-4.47593e-006	0	
-5.7423e-006	-4.66844e-006	0	
-5.89267e-006	-4.84839e-006	0	
-6.03085e-006	-5.01691e-006	0	
-6.15529e-006	-5.17474e-006	0	
-6.2645e-006	-5.32322e-006	0	
-6.35738e-006	-5.46354e-006	0	
-6.43332e-006	-5.59676e-006	0	
-6.49194e-006	-5.72372e-006	0	
-6.53301e-006	-5.84514e-006	0	
-6.55641e-006	-5.96174e-006	0	
-6.56221e-006	-6.0743e-006	0	
-6.55078e-006	-6.18357e-006	0	
-6.52271e-006	-6.29027e-006	0	
-6.47881e-006	-6.39505e-006	0	
-6.42003e-006	-6.49844e-006	0	
-6.34745e-006	-6.60091e-006	0	
-6.2622e-006	-6.70287e-006	0	
-6.16551e-006	-6.80463e-006	0	
-6.0586e-006	-6.90646e-006	0	
-5.94263e-006	-7.00855e-006	0	
-5.81872e-006	-7.11099e-006	0	
-5.68795e-006	-7.21386e-006	0	
-5.55135e-006	-7.31717e-006	0	
-5.40983e-006	-7.4209e-006	0	
-5.26427e-006	-7.52499e-006	0	
-5.1155e-006	-7.62936e-006	0	
-4.96427e-006	-7.73386e-006	0	
-4.81129e-006	-7.83836e-006	0	
-4.65721e-006	-7.94268e-006	0	
-4.50262e-006	-8.04661e-006	0	
-4.34804e-006	-8.14996e-006	0	
-4.19393e-006	-8.25246e-006	0	
-4.0407e-006	-8.35389e-006	0	
-3.88869e-006	-8.45396e-006	0	
-3.73815e-006	-8.55242e-006	0	
-3.58929e-006	-8.64897e-006	0	
-3.44225e-006	-8.74335e-006	0	
-3.29709e-006	-8.83528e-006	0	
-3.15383e-006	-8.9245e-006	0	
-3.0124e-006	-9.01074e-006	0	
-2.87268e-006	-9.09377e-006	0	
-2.7345e-006	-9.17335e-006	0	
-2.59758e-006	-9.24929e-006	0	
-2.46163e-006	-9.3214e-006	0	
-2.32627e-006	-9.38955e-006	0	
-2.19113e-006	-9.45359e-006	0	
-2.05579e-006	-9.51343e-006	0	
-1.9198e-006	-9.56902e-006	0	
-1.78273e-006	-9.62031e-006	0	
-1.64411e-006	-9.66731e-006	0	
-1.50351e-006	-9.71006e-006	0	
-1.3605e-006	-9.74861e-006	0	
-1.21469e-006	-9.78304e-006	0	
-1.0657e-006	-9.81345e-006	0	
-9.13172e-007	-9.83997e-006	0	
-7.56775e-007	-9.86275e-006	0	
-5.96213e-007	-9.88195e-006	0	
-4.31207e-007	-9.89773e-006	0	
-2.61505e-007	-9.91029e-006	0	
-8.68758e-008	-9.91982e-006	0	
9.2872e-008	-9.92654e-006	0	
2.77891e-007	-9.93068e-006	0	
4.68288e-007	-9.93248e-006	0	
6.64134e-007	-9.93218e-006	0	
8.65475e-007	-9.93007e-006	0	
1.07229e-006	-9.92642e-006	0	
1.28447e-006	-9.92151e-006	0	
1.50189e-006	-9.91564e-006	0	
1.72431e-006	-9.9091e-006	0	
1.95145e-006	-9.90218e-006	0	
2.18292e-006	-9.89515e-006	0	
2.41824e-006	-9.8883e-006	0	
2.65685e-006	-9.88187e-006	0	
2.89803e-006	-9.87611e-006	0	
3.14099e-006	-9.87126e-006	0	
3.38477e-006	-9.86752e-006	0	
3.6283e-006	-9.86505e-006	0	
3.87023e-006	-9.86395e-006	0	
-1.95279e-018	-3.6689e-018	0	
-3.17547e-007	-1.67474e-007	0	
-6.54432e-007	-3.44893e-007	0	
-9.97928e-007	-5.30506e-007	0	
-1.33475e-006	-7.18818e-007	0	
-1.65501e-006	-9.04525e-007	0	
-1.95225e-006	-1.08362e-006	0	
-2.22289e-006	-1.25294e-006	0	
-2.46595e-006	-1.4104e-006	0	
-2.68074e-006	-1.55566e-006	0	
-2.86486e-006	-1.68523e-006	0	
-3.02358e-006	-1.79188e-006	0	
-3.15293e-006	-1.8604e-006	0	
-3.11556e-006	-1.87991e-006	0	
-3.52909e-006	-2.22511e-006	0	
-3.77264e-006	-2.52268e-006	0	
-4.12116e-006	-2.89152e-006	0	
-4.43727e-006	-3.20438e-006	0	
-4.70332e-006	-3.48165e-006	0	
-4.92116e-006	-3.74248e-006	0	
-5.12129e-006	-3.99137e-006	0	
-5.31392e-006	-4.22097e-006	0	
-5.49533e-006	-4.43229e-006	0	
-5.6633e-006	-4.62945e-006	0	
-5.81934e-006	-4.81487e-006	0	
-5.96327e-006	-4.98907e-006	0	
-6.09289e-006	-5.15297e-006	0	
-6.20623e-006	-5.30799e-006	0	
-6.30233e-006	-5.45565e-006	0	
-6.38094e-006	-5.59694e-006	0	
-6.44197e-006	-5.73245e-006	0	
-6.48519e-006	-5.86268e-006	0	
-6.51036e-006	-5.98824e-006	0	
-6.51752e-006	-6.10983e-006	0	
-6.50702e-006	-6.22814e-006	0	
-6.47952e-006	-6.34383e-006	0	
-6.43587e-006	-6.45749e-006	0	
-6.3771e-006	-6.56962e-006	0	
-6.30433e-006	-6.68063e-006	0	
-6.21876e-006	-6.79088e-006	0	
-6.12166e-006	-6.90063e-006	0	
-6.01429e-006	-7.0101e-006	0	
-5.89787e-006	-7.11943e-006	0	
-5.77354e-006	-7.2287e-006	0	
-5.64241e-006	-7.33794e-006	0	
-5.50547e-006	-7.44715e-006	0	
-5.36367e-006	-7.55632e-006	0	
-5.21789e-006	-7.66539e-006	0	
-5.06896e-006	-7.7743e-006	0	
-4.91764e-006	-7.88293e-006	0	
-4.76465e-006	-7.99115e-006	0	
-4.61064e-006	-8.09882e-006	0	
-4.45621e-006	-8.20576e-006	0	
-4.3019e-006	-8.31179e-006	0	
-4.14816e-006	-8.4167e-006	0	
-3.99544e-006	-8.52028e-006	0	
-3.84406e-006	-8.62228e-006	0	
-3.69428e-006	-8.72248e-006	0	
-3.54631e-006	-8.82061e-006	0	
-3.4003e-006	-8.91644e-006	0	
-3.25633e-006	-9.00971e-006	0	
-3.11436e-006	-9.10019e-006	0	
-2.97437e-006	-9.18765e-006	0	
-2.83621e-006	-9.27186e-006	0	
-2.6997e-006	-9.35263e-006	0	
-2.56455e-006	-9.42977e-006	0	
-2.43044e-006	-9.50311e-006	0	
-2.29701e-006	-9.57254e-006	0	
-2.16384e-006	-9.63793e-006	0	
-2.03051e-006	-9.69922e-006	0	
-1.89654e-006	-9.75634e-006	0	
-1.76148e-006	-9.80928e-006	0	
-1.62487e-006	-9.85806e-006	0	
-1.48624e-006	-9.9027e-006	0	
-1.34518e-006	-9.94325e-006	0	
-1.20128e-006	-9.97982e-006	0	
-1.05414e-006	-1.00125e-005	0	
-9.0341e-007	-1.00414e-005	0	
-7.48747e-007	-1.00666e-005	0	
-5.89847e-007	-1.00884e-005	0	
-4.26426e-007	-1.01068e-005	0	
-2.58229e-007	-1.01221e-005	0	
-8.50154e-008	-1.01343e-005	0	
9.34094e-008	-1.01438e-005	0	
2.77193e-007	-1.01506e-005	0	
4.66464e-007	-1.01551e-005	0	
6.61303e-007	-1.01574e-005	0	
8.61746e-007	-1.01578e-005	0	
1.06778e-006	-1.01565e-005	0	
1.27932e-006	-1.01538e-005	0	
1.49621e-006	-1.01499e-005	0	
1.71827e-006	-1.01452e-005	0	
1.9452e-006	-1.01398e-005	0	
2.17662e-006	-1.0134e-005	0	
2.41208e-006	-1.01281e-005	0	
2.65101e-006	-1.01224e-005	0	
2.89274e-006	-1.01171e-005	0	
3.13647e-006	-1.01125e-005	0	
3.38126e-006	-1.01088e-005	0	
3.62601e-006	-1.01063e-005	0	
3.86935e-006	-1.01052e-005	0	
-1.89503e-018	-3.5325e-018	0	
-3.03965e-007	-1.62555e-007	0	
-6.23602e-007	-3.35301e-007	0	
-9.52142e-007	-5.16243e-007	0	
-1.27857e-006	-7.0214e-007	0	
-1.59334e-006	-8.89647e-007	0	
-1.88975e-006	-1.07557e-006	0	
-2.1637e-006	-1.2572e-006	0	
-2.41324e-006	-1.43261e-006	0	
-2.63734e-006	-1.60057e-006	0	
-2.83612e-006	-1.75961e-006	0	
-3.01451e-006	-1.90794e-006	0	
-3.15824e-006	-2.05659e-006	0	
-3.23579e-006	-2.24165e-006	0	
-3.55256e-006	-2.49195e-006	0	
-3.59272e-006	-2.49479e-006	0	
-3.95409e-006	-2.84401e-006	0	
-4.34671e-006	-3.18207e-006	0	
-4.61024e-006	-3.46991e-006	0	
-4.81701e-006	-3.73505e-006	0	
-5.01891e-006	-3.98652e-006	0	
-5.22416e-006	-4.21519e-006	0	
-5.414e-006	-4.42177e-006	0	
-5.58499e-006	-4.61836e-006	0	
-5.7464e-006	-4.80586e-006	0	
-5.89665e-006	-4.98301e-006	0	
-6.03156e-006	-5.15059e-006	0	
-6.14868e-006	-5.31014e-006	0	
-6.24727e-006	-5.4635e-006	0	
-6.32807e-006	-5.61154e-006	0	
-6.39135e-006	-5.75434e-006	0	
-6.43668e-006	-5.89205e-006	0	
-6.46356e-006	-6.02517e-006	0	
-6.4719e-006	-6.15443e-006	0	
-6.46213e-006	-6.28055e-006	0	
-6.43496e-006	-6.40411e-006	0	
-6.39134e-006	-6.52562e-006	0	
-6.33235e-006	-6.64552e-006	0	
-6.25916e-006	-6.76421e-006	0	
-6.17305e-006	-6.88201e-006	0	
-6.07536e-006	-6.99917e-006	0	
-5.96741e-006	-7.11583e-006	0	
-5.85046e-006	-7.23208e-006	0	
-5.7257e-006	-7.34795e-006	0	
-5.59419e-006	-7.46344e-006	0	
-5.45695e-006	-7.57854e-006	0	
-5.31492e-006	-7.69322e-006	0	
-5.16898e-006	-7.80743e-006	0	
-5.01995e-006	-7.9211e-006	0	
-4.86862e-006	-8.03415e-006	0	
-4.71568e-006	-8.14645e-006	0	
-4.56181e-006	-8.25788e-006	0	
-4.40761e-006	-8.36828e-006	0	
-4.25363e-006	-8.47749e-006	0	
-4.10033e-006	-8.58533e-006	0	
-3.94817e-006	-8.6916e-006	0	
-3.79748e-006	-8.79609e-006	0	
-3.64852e-006	-8.8986e-006	0	
-3.50151e-006	-8.9989e-006	0	
-3.35661e-006	-9.09675e-006	0	
-3.21387e-006	-9.19192e-006	0	
-3.07329e-006	-9.28421e-006	0	
-2.93481e-006	-9.3734e-006	0	
-2.7983e-006	-9.45928e-006	0	
-2.66355e-006	-9.54167e-006	0	
-2.53027e-006	-9.6204e-006	0	
-2.39811e-006	-9.69532e-006	0	
-2.26669e-006	-9.76631e-006	0	
-2.13559e-006	-9.83328e-006	0	
-2.00435e-006	-9.89617e-006	0	
-1.87249e-006	-9.95495e-006	0	
-1.73953e-006	-1.00096e-005	0	
-1.60499e-006	-1.00601e-005	0	
-1.46841e-006	-1.01066e-005	0	
-1.32936e-006	-1.01491e-005	0	
-1.18742e-006	-1.01876e-005	0	
-1.04218e-006	-1.02223e-005	0	
-8.93289e-007	-1.02534e-005	0	
-7.4041e-007	-1.02808e-005	0	
-5.83224e-007	-1.03048e-005	0	
-4.21445e-007	-1.03255e-005	0	
-2.54815e-007	-1.0343e-005	0	
-8.30911e-008	-1.03576e-005	0	
9.39286e-008	-1.03693e-005	0	
2.76399e-007	-1.03785e-005	0	
4.64444e-007	-1.03851e-005	0	
6.58161e-007	-1.03895e-005	0	
8.57594e-007	-1.03919e-005	0	
1.06273e-006	-1.03924e-005	0	
1.2735e-006	-1.03914e-005	0	
1.48977e-006	-1.0389e-005	0	
1.71135e-006	-1.03856e-005	0	
1.93797e-006	-1.03812e-005	0	
2.16927e-006	-1.03763e-005	0	
2.40482e-006	-1.0371e-005	0	
2.64407e-006	-1.03657e-005	0	
2.88638e-006	-1.03606e-005	0	
3.13099e-006	-1.0356e-005	0	
3.37699e-006	-1.03522e-005	0	
3.6233e-006	-1.03495e-005	0	
3.86864e-006	-1.03483e-005	0	
-1.78304e-018	-3.45028e-018	0	
-2.86726e-007	-1.61284e-007	0	
-5.91721e-007	-3.34263e-007	0	
-9.0853e-007	-5.1454e-007	0	
-1.22559e-006	-7.00464e-007	0	
-1.53389e-006	-8.90827e-007	0	
-1.82738e-006	-1.08327e-006	0	
-2.10159e-006	-1.27554e-006	0	
-2.3541e-006	-1.46609e-006	0	
-2.58404e-006	-1.65376e-006	0	
-2.7913e-006	-1.83826e-006	0	
-2.97505e-006	-2.02182e-006	0	
-3.13397e-006	-2.20329e-006	0	
-3.29648e-006	-2.36557e-006	0	
-3.5258e-006	-2.52943e-006	0	
-3.63382e-006	-2.66886e-006	0	
-3.64632e-006	-2.75967e-006	0	
-4.25451e-006	-3.25665e-006	0	
-4.51751e-006	-3.56631e-006	0	
-4.73559e-006	-3.82174e-006	0	
-4.9177e-006	-4.04511e-006	0	
-5.15384e-006	-4.24983e-006	0	
-5.34124e-006	-4.43765e-006	0	
-5.50974e-006	-4.63142e-006	0	
-5.67589e-006	-4.8186e-006	0	
-5.83252e-006	-4.99604e-006	0	
-5.97333e-006	-5.16503e-006	0	
-6.09334e-006	-5.3273e-006	0	
-6.19309e-006	-5.48547e-006	0	
-6.2754e-006	-5.63962e-006	0	
-6.34093e-006	-5.78883e-006	0	
-6.38851e-006	-5.93288e-006	0	
-6.41704e-006	-6.07238e-006	0	
-6.42632e-006	-6.20823e-006	0	
-6.41694e-006	-6.3412e-006	0	
-6.38981e-006	-6.47175e-006	0	
-6.34594e-006	-6.60029e-006	0	
-6.28643e-006	-6.72718e-006	0	
-6.21251e-006	-6.85282e-006	0	
-6.12554e-006	-6.97753e-006	0	
-6.02696e-006	-7.10155e-006	0	
-5.91821e-006	-7.22498e-006	0	
-5.80057e-006	-7.34784e-006	0	
-5.67526e-006	-7.47008e-006	0	
-5.54333e-006	-7.59168e-006	0	
-5.40576e-006	-7.71261e-006	0	