# vtk DataFile Version 4.1
vtk output
ASCII
DATASET UNSTRUCTURED_GRID

POINTS	30401	float
0	0	0	
0	1	0	
0	2	0	
0	3	0	
0	4	0	
0	5	0	
0	6	0	
0	7	0	
0	8	0	
0	9	0	
0	10	0	
0	11	0	
0	12	0	
0	13	0	
0	14	0	
0	15	0	
0	16	0	
0	17	0	
0	18	0	
0	19	0	
0	20	0	
0	21	0	
0	22	0	
0	23	0	
0	24	0	
0	25	0	
0	26	0	
0	27	0	
0	28	0	
0	29	0	
0	30	0	
0	31	0	
0	32	0	
0	33	0	
0	34	0	
0	35	0	
0	36	0	
0	37	0	
0	38	0	
0	39	0	
0	40	0	
0	41	0	
0	42	0	
0	43	0	
0	44	0	
0	45	0	
0	46	0	
0	47	0	
0	48	0	
0	49	0	
0	50	0	
0	51	0	
0	52	0	
0	53	0	
0	54	0	
0	55	0	
0	56	0	
0	57	0	
0	58	0	
0	59	0	
0	60	0	
0	61	0	
0	62	0	
0	63	0	
0	64	0	
0	65	0	
0	66	0	
0	67	0	
0	68	0	
0	69	0	
0	70	0	
0	71	0	
0	72	0	
0	73	0	
0	74	0	
0	75	0	
0	76	0	
0	77	0	
0	78	0	
0	79	0	
0	80	0	
0	81	0	
0	82	0	
0	83	0	
0	84	0	
0	85	0	
0	86	0	
0	87	0	
0	88	0	
0	89	0	
0	90	0	
0	91	0	
0	92	0	
0	93	0	
0	94	0	
0	95	0	
0	96	0	
0	97	0	
0	98	0	
0	99	0	
0	100	0	
1	0	0	
1	1	0	
1	2	0	
1	3	0	
1	4	0	
1	5	0	
1	6	0	
1	7	0	
1	8	0	
1	9	0	
1	10	0	
1	11	0	
1	12	0	
1	13	0	
1	14	0	
1	15	0	
1	16	0	
1	17	0	
1	18	0	
1	19	0	
1	20	0	
1	21	0	
1	22	0	
1	23	0	
1	24	0	
1	25	0	
1	26	0	
1	27	0	
1	28	0	
1	29	0	
1	30	0	
1	31	0	
1	32	0	
1	33	0	
1	34	0	
1	35	0	
1	36	0	
1	37	0	
1	38	0	
1	39	0	
1	40	0	
1	41	0	
1	42	0	
1	43	0	
1	44	0	
1	45	0	
1	46	0	
1	47	0	
1	48	0	
1	49	0	
1	50	0	
1	51	0	
1	52	0	
1	53	0	
1	54	0	
1	55	0	
1	56	0	
1	57	0	
1	58	0	
1	59	0	
1	60	0	
1	61	0	
1	62	0	
1	63	0	
1	64	0	
1	65	0	
1	66	0	
1	67	0	
1	68	0	
1	69	0	
1	70	0	
1	71	0	
1	72	0	
1	73	0	
1	74	0	
1	75	0	
1	76	0	
1	77	0	
1	78	0	
1	79	0	
1	80	0	
1	81	0	
1	82	0	
1	83	0	
1	84	0	
1	85	0	
1	86	0	
1	87	0	
1	88	0	
1	89	0	
1	90	0	
1	91	0	
1	92	0	
1	93	0	
1	94	0	
1	95	0	
1	96	0	
1	97	0	
1	98	0	
1	99	0	
1	100	0	
2	0	0	
2	1	0	
2	2	0	
2	3	0	
2	4	0	
2	5	0	
2	6	0	
2	7	0	
2	8	0	
2	9	0	
2	10	0	
2	11	0	
2	12	0	
2	13	0	
2	14	0	
2	15	0	
2	16	0	
2	17	0	
2	18	0	
2	19	0	
2	20	0	
2	21	0	
2	22	0	
2	23	0	
2	24	0	
2	25	0	
2	26	0	
2	27	0	
2	28	0	
2	29	0	
2	30	0	
2	31	0	
2	32	0	
2	33	0	
2	34	0	
2	35	0	
2	36	0	
2	37	0	
2	38	0	
2	39	0	
2	40	0	
2	41	0	
2	42	0	
2	43	0	
2	44	0	
2	45	0	
2	46	0	
2	47	0	
2	48	0	
2	49	0	
2	50	0	
2	51	0	
2	52	0	
2	53	0	
2	54	0	
2	55	0	
2	56	0	
2	57	0	
2	58	0	
2	59	0	
2	60	0	
2	61	0	
2	62	0	
2	63	0	
2	64	0	
2	65	0	
2	66	0	
2	67	0	
2	68	0	
2	69	0	
2	70	0	
2	71	0	
2	72	0	
2	73	0	
2	74	0	
2	75	0	
2	76	0	
2	77	0	
2	78	0	
2	79	0	
2	80	0	
2	81	0	
2	82	0	
2	83	0	
2	84	0	
2	85	0	
2	86	0	
2	87	0	
2	88	0	
2	89	0	
2	90	0	
2	91	0	
2	92	0	
2	93	0	
2	94	0	
2	95	0	
2	96	0	
2	97	0	
2	98	0	
2	99	0	
2	100	0	
3	0	0	
3	1	0	
3	2	0	
3	3	0	
3	4	0	
3	5	0	
3	6	0	
3	7	0	
3	8	0	
3	9	0	
3	10	0	
3	11	0	
3	12	0	
3	13	0	
3	14	0	
3	15	0	
3	16	0	
3	17	0	
3	18	0	
3	19	0	
3	20	0	
3	21	0	
3	22	0	
3	23	0	
3	24	0	
3	25	0	
3	26	0	
3	27	0	
3	28	0	
3	29	0	
3	30	0	
3	31	0	
3	32	0	
3	33	0	
3	34	0	
3	35	0	
3	36	0	
3	37	0	
3	38	0	
3	39	0	
3	40	0	
3	41	0	
3	42	0	
3	43	0	
3	44	0	
3	45	0	
3	46	0	
3	47	0	
3	48	0	
3	49	0	
3	50	0	
3	51	0	
3	52	0	
3	53	0	
3	54	0	
3	55	0	
3	56	0	
3	57	0	
3	58	0	
3	59	0	
3	60	0	
3	61	0	
3	62	0	
3	63	0	
3	64	0	
3	65	0	
3	66	0	
3	67	0	
3	68	0	
3	69	0	
3	70	0	
3	71	0	
3	72	0	
3	73	0	
3	74	0	
3	75	0	
3	76	0	
3	77	0	
3	78	0	
3	79	0	
3	80	0	
3	81	0	
3	82	0	
3	83	0	
3	84	0	
3	85	0	
3	86	0	
3	87	0	
3	88	0	
3	89	0	
3	90	0	
3	91	0	
3	92	0	
3	93	0	
3	94	0	
3	95	0	
3	96	0	
3	97	0	
3	98	0	
3	99	0	
3	100	0	
4	0	0	
4	1	0	
4	2	0	
4	3	0	
4	4	0	
4	5	0	
4	6	0	
4	7	0	
4	8	0	
4	9	0	
4	10	0	
4	11	0	
4	12	0	
4	13	0	
4	14	0	
4	15	0	
4	16	0	
4	17	0	
4	18	0	
4	19	0	
4	20	0	
4	21	0	
4	22	0	
4	23	0	
4	24	0	
4	25	0	
4	26	0	
4	27	0	
4	28	0	
4	29	0	
4	30	0	
4	31	0	
4	32	0	
4	33	0	
4	34	0	
4	35	0	
4	36	0	
4	37	0	
4	38	0	
4	39	0	
4	40	0	
4	41	0	
4	42	0	
4	43	0	
4	44	0	
4	45	0	
4	46	0	
4	47	0	
4	48	0	
4	49	0	
4	50	0	
4	51	0	
4	52	0	
4	53	0	
4	54	0	
4	55	0	
4	56	0	
4	57	0	
4	58	0	
4	59	0	
4	60	0	
4	61	0	
4	62	0	
4	63	0	
4	64	0	
4	65	0	
4	66	0	
4	67	0	
4	68	0	
4	69	0	
4	70	0	
4	71	0	
4	72	0	
4	73	0	
4	74	0	
4	75	0	
4	76	0	
4	77	0	
4	78	0	
4	79	0	
4	80	0	
4	81	0	
4	82	0	
4	83	0	
4	84	0	
4	85	0	
4	86	0	
4	87	0	
4	88	0	
4	89	0	
4	90	0	
4	91	0	
4	92	0	
4	93	0	
4	94	0	
4	95	0	
4	96	0	
4	97	0	
4	98	0	
4	99	0	
4	100	0	
5	0	0	
5	1	0	
5	2	0	
5	3	0	
5	4	0	
5	5	0	
5	6	0	
5	7	0	
5	8	0	
5	9	0	
5	10	0	
5	11	0	
5	12	0	
5	13	0	
5	14	0	
5	15	0	
5	16	0	
5	17	0	
5	18	0	
5	19	0	
5	20	0	
5	21	0	
5	22	0	
5	23	0	
5	24	0	
5	25	0	
5	26	0	
5	27	0	
5	28	0	
5	29	0	
5	30	0	
5	31	0	
5	32	0	
5	33	0	
5	34	0	
5	35	0	
5	36	0	
5	37	0	
5	38	0	
5	39	0	
5	40	0	
5	41	0	
5	42	0	
5	43	0	
5	44	0	
5	45	0	
5	46	0	
5	47	0	
5	48	0	
5	49	0	
5	50	0	
5	51	0	
5	52	0	
5	53	0	
5	54	0	
5	55	0	
5	56	0	
5	57	0	
5	58	0	
5	59	0	
5	60	0	
5	61	0	
5	62	0	
5	63	0	
5	64	0	
5	65	0	
5	66	0	
5	67	0	
5	68	0	
5	69	0	
5	70	0	
5	71	0	
5	72	0	
5	73	0	
5	74	0	
5	75	0	
5	76	0	
5	77	0	
5	78	0	
5	79	0	
5	80	0	
5	81	0	
5	82	0	
5	83	0	
5	84	0	
5	85	0	
5	86	0	
5	87	0	
5	88	0	
5	89	0	
5	90	0	
5	91	0	
5	92	0	
5	93	0	
5	94	0	
5	95	0	
5	96	0	
5	97	0	
5	98	0	
5	99	0	
5	100	0	
6	0	0	
6	1	0	
6	2	0	
6	3	0	
6	4	0	
6	5	0	
6	6	0	
6	7	0	
6	8	0	
6	9	0	
6	10	0	
6	11	0	
6	12	0	
6	13	0	
6	14	0	
6	15	0	
6	16	0	
6	17	0	
6	18	0	
6	19	0	
6	20	0	
6	21	0	
6	22	0	
6	23	0	
6	24	0	
6	25	0	
6	26	0	
6	27	0	
6	28	0	
6	29	0	
6	30	0	
6	31	0	
6	32	0	
6	33	0	
6	34	0	
6	35	0	
6	36	0	
6	37	0	
6	38	0	
6	39	0	
6	40	0	
6	41	0	
6	42	0	
6	43	0	
6	44	0	
6	45	0	
6	46	0	
6	47	0	
6	48	0	
6	49	0	
6	50	0	
6	51	0	
6	52	0	
6	53	0	
6	54	0	
6	55	0	
6	56	0	
6	57	0	
6	58	0	
6	59	0	
6	60	0	
6	61	0	
6	62	0	
6	63	0	
6	64	0	
6	65	0	
6	66	0	
6	67	0	
6	68	0	
6	69	0	
6	70	0	
6	71	0	
6	72	0	
6	73	0	
6	74	0	
6	75	0	
6	76	0	
6	77	0	
6	78	0	
6	79	0	
6	80	0	
6	81	0	
6	82	0	
6	83	0	
6	84	0	
6	85	0	
6	86	0	
6	87	0	
6	88	0	
6	89	0	
6	90	0	
6	91	0	
6	92	0	
6	93	0	
6	94	0	
6	95	0	
6	96	0	
6	97	0	
6	98	0	
6	99	0	
6	100	0	
7	0	0	
7	1	0	
7	2	0	
7	3	0	
7	4	0	
7	5	0	
7	6	0	
7	7	0	
7	8	0	
7	9	0	
7	10	0	
7	11	0	
7	12	0	
7	13	0	
7	14	0	
7	15	0	
7	16	0	
7	17	0	
7	18	0	
7	19	0	
7	20	0	
7	21	0	
7	22	0	
7	23	0	
7	24	0	
7	25	0	
7	26	0	
7	27	0	
7	28	0	
7	29	0	
7	30	0	
7	31	0	
7	32	0	
7	33	0	
7	34	0	
7	35	0	
7	36	0	
7	37	0	
7	38	0	
7	39	0	
7	40	0	
7	41	0	
7	42	0	
7	43	0	
7	44	0	
7	45	0	
7	46	0	
7	47	0	
7	48	0	
7	49	0	
7	50	0	
7	51	0	
7	52	0	
7	53	0	
7	54	0	
7	55	0	
7	56	0	
7	57	0	
7	58	0	
7	59	0	
7	60	0	
7	61	0	
7	62	0	
7	63	0	
7	64	0	
7	65	0	
7	66	0	
7	67	0	
7	68	0	
7	69	0	
7	70	0	
7	71	0	
7	72	0	
7	73	0	
7	74	0	
7	75	0	
7	76	0	
7	77	0	
7	78	0	
7	79	0	
7	80	0	
7	81	0	
7	82	0	
7	83	0	
7	84	0	
7	85	0	
7	86	0	
7	87	0	
7	88	0	
7	89	0	
7	90	0	
7	91	0	
7	92	0	
7	93	0	
7	94	0	
7	95	0	
7	96	0	
7	97	0	
7	98	0	
7	99	0	
7	100	0	
8	0	0	
8	1	0	
8	2	0	
8	3	0	
8	4	0	
8	5	0	
8	6	0	
8	7	0	
8	8	0	
8	9	0	
8	10	0	
8	11	0	
8	12	0	
8	13	0	
8	14	0	
8	15	0	
8	16	0	
8	17	0	
8	18	0	
8	19	0	
8	20	0	
8	21	0	
8	22	0	
8	23	0	
8	24	0	
8	25	0	
8	26	0	
8	27	0	
8	28	0	
8	29	0	
8	30	0	
8	31	0	
8	32	0	
8	33	0	
8	34	0	
8	35	0	
8	36	0	
8	37	0	
8	38	0	
8	39	0	
8	40	0	
8	41	0	
8	42	0	
8	43	0	
8	44	0	
8	45	0	
8	46	0	
8	47	0	
8	48	0	
8	49	0	
8	50	0	
8	51	0	
8	52	0	
8	53	0	
8	54	0	
8	55	0	
8	56	0	
8	57	0	
8	58	0	
8	59	0	
8	60	0	
8	61	0	
8	62	0	
8	63	0	
8	64	0	
8	65	0	
8	66	0	
8	67	0	
8	68	0	
8	69	0	
8	70	0	
8	71	0	
8	72	0	
8	73	0	
8	74	0	
8	75	0	
8	76	0	
8	77	0	
8	78	0	
8	79	0	
8	80	0	
8	81	0	
8	82	0	
8	83	0	
8	84	0	
8	85	0	
8	86	0	
8	87	0	
8	88	0	
8	89	0	
8	90	0	
8	91	0	
8	92	0	
8	93	0	
8	94	0	
8	95	0	
8	96	0	
8	97	0	
8	98	0	
8	99	0	
8	100	0	
9	0	0	
9	1	0	
9	2	0	
9	3	0	
9	4	0	
9	5	0	
9	6	0	
9	7	0	
9	8	0	
9	9	0	
9	10	0	
9	11	0	
9	12	0	
9	13	0	
9	14	0	
9	15	0	
9	16	0	
9	17	0	
9	18	0	
9	19	0	
9	20	0	
9	21	0	
9	22	0	
9	23	0	
9	24	0	
9	25	0	
9	26	0	
9	27	0	
9	28	0	
9	29	0	
9	30	0	
9	31	0	
9	32	0	
9	33	0	
9	34	0	
9	35	0	
9	36	0	
9	37	0	
9	38	0	
9	39	0	
9	40	0	
9	41	0	
9	42	0	
9	43	0	
9	44	0	
9	45	0	
9	46	0	
9	47	0	
9	48	0	
9	49	0	
9	50	0	
9	51	0	
9	52	0	
9	53	0	
9	54	0	
9	55	0	
9	56	0	
9	57	0	
9	58	0	
9	59	0	
9	60	0	
9	61	0	
9	62	0	
9	63	0	
9	64	0	
9	65	0	
9	66	0	
9	67	0	
9	68	0	
9	69	0	
9	70	0	
9	71	0	
9	72	0	
9	73	0	
9	74	0	
9	75	0	
9	76	0	
9	77	0	
9	78	0	
9	79	0	
9	80	0	
9	81	0	
9	82	0	
9	83	0	
9	84	0	
9	85	0	
9	86	0	
9	87	0	
9	88	0	
9	89	0	
9	90	0	
9	91	0	
9	92	0	
9	93	0	
9	94	0	
9	95	0	
9	96	0	
9	97	0	
9	98	0	
9	99	0	
9	100	0	
10	0	0	
10	1	0	
10	2	0	
10	3	0	
10	4	0	
10	5	0	
10	6	0	
10	7	0	
10	8	0	
10	9	0	
10	10	0	
10	11	0	
10	12	0	
10	13	0	
10	14	0	
10	15	0	
10	16	0	
10	17	0	
10	18	0	
10	19	0	
10	20	0	
10	21	0	
10	22	0	
10	23	0	
10	24	0	
10	25	0	
10	26	0	
10	27	0	
10	28	0	
10	29	0	
10	30	0	
10	31	0	
10	32	0	
10	33	0	
10	34	0	
10	35	0	
10	36	0	
10	37	0	
10	38	0	
10	39	0	
10	40	0	
10	41	0	
10	42	0	
10	43	0	
10	44	0	
10	45	0	
10	46	0	
10	47	0	
10	48	0	
10	49	0	
10	50	0	
10	51	0	
10	52	0	
10	53	0	
10	54	0	
10	55	0	
10	56	0	
10	57	0	
10	58	0	
10	59	0	
10	60	0	
10	61	0	
10	62	0	
10	63	0	
10	64	0	
10	65	0	
10	66	0	
10	67	0	
10	68	0	
10	69	0	
10	70	0	
10	71	0	
10	72	0	
10	73	0	
10	74	0	
10	75	0	
10	76	0	
10	77	0	
10	78	0	
10	79	0	
10	80	0	
10	81	0	
10	82	0	
10	83	0	
10	84	0	
10	85	0	
10	86	0	
10	87	0	
10	88	0	
10	89	0	
10	90	0	
10	91	0	
10	92	0	
10	93	0	
10	94	0	
10	95	0	
10	96	0	
10	97	0	
10	98	0	
10	99	0	
10	100	0	
11	0	0	
11	1	0	
11	2	0	
11	3	0	
11	4	0	
11	5	0	
11	6	0	
11	7	0	
11	8	0	
11	9	0	
11	10	0	
11	11	0	
11	12	0	
11	13	0	
11	14	0	
11	15	0	
11	16	0	
11	17	0	
11	18	0	
11	19	0	
11	20	0	
11	21	0	
11	22	0	
11	23	0	
11	24	0	
11	25	0	
11	26	0	
11	27	0	
11	28	0	
11	29	0	
11	30	0	
11	31	0	
11	32	0	
11	33	0	
11	34	0	
11	35	0	
11	36	0	
11	37	0	
11	38	0	
11	39	0	
11	40	0	
11	41	0	
11	42	0	
11	43	0	
11	44	0	
11	45	0	
11	46	0	
11	47	0	
11	48	0	
11	49	0	
11	50	0	
11	51	0	
11	52	0	
11	53	0	
11	54	0	
11	55	0	
11	56	0	
11	57	0	
11	58	0	
11	59	0	
11	60	0	
11	61	0	
11	62	0	
11	63	0	
11	64	0	
11	65	0	
11	66	0	
11	67	0	
11	68	0	
11	69	0	
11	70	0	
11	71	0	
11	72	0	
11	73	0	
11	74	0	
11	75	0	
11	76	0	
11	77	0	
11	78	0	
11	79	0	
11	80	0	
11	81	0	
11	82	0	
11	83	0	
11	84	0	
11	85	0	
11	86	0	
11	87	0	
11	88	0	
11	89	0	
11	90	0	
11	91	0	
11	92	0	
11	93	0	
11	94	0	
11	95	0	
11	96	0	
11	97	0	
11	98	0	
11	99	0	
11	100	0	
12	0	0	
12	1	0	
12	2	0	
12	3	0	
12	4	0	
12	5	0	
12	6	0	
12	7	0	
12	8	0	
12	9	0	
12	10	0	
12	11	0	
12	12	0	
12	13	0	
[...]
POINT_DATA	30401
VECTORS d float
-5.57886e-018	-1.00561e-017	0	
-3.07406e-007	-3.03779e-007	0	
-5.38425e-007	-4.72144e-007	0	
-7.42109e-007	-5.93085e-007	0	
-9.22152e-007	-6.81347e-007	0	
-1.08008e-006	-7.39001e-007	0	
-1.20566e-006	-7.6228e-007	0	
-1.28216e-006	-7.61967e-007	0	
-1.44272e-006	-9.34166e-007	0	
-1.60575e-006	-1.08278e-006	0	
-1.74305e-006	-1.22134e-006	0	
-1.88017e-006	-1.36487e-006	0	
-2.00825e-006	-1.50193e-006	0	
-2.12985e-006	-1.64787e-006	0	
-2.25826e-006	-1.79613e-006	0	
-2.38746e-006	-1.94058e-006	0	
-2.51189e-006	-2.08346e-006	0	
-2.63143e-006	-2.2272e-006	0	
-2.74789e-006	-2.37231e-006	0	
-2.86267e-006	-2.51677e-006	0	
-2.97676e-006	-2.6595e-006	0	
-3.09004e-006	-2.79898e-006	0	
-3.20155e-006	-2.93397e-006	0	
-3.30988e-006	-3.06377e-006	0	
-3.41371e-006	-3.18838e-006	0	
-3.51197e-006	-3.30812e-006	0	
-3.60388e-006	-3.42325e-006	0	
-3.68901e-006	-3.53406e-006	0	
-3.76719e-006	-3.6408e-006	0	
-3.83837e-006	-3.74368e-006	0	
-3.90264e-006	-3.84287e-006	0	
-3.96008e-006	-3.93856e-006	0	
-4.01078e-006	-4.03089e-006	0	
-4.05488e-006	-4.11997e-006	0	
-4.09249e-006	-4.2059e-006	0	
-4.12365e-006	-4.28877e-006	0	
-4.14842e-006	-4.36865e-006	0	
-4.1668e-006	-4.44568e-006	0	
-4.17878e-006	-4.51995e-006	0	
-4.18435e-006	-4.5916e-006	0	
-4.18347e-006	-4.66077e-006	0	
-4.17612e-006	-4.72765e-006	0	
-4.16231e-006	-4.79243e-006	0	
-4.14207e-006	-4.8553e-006	0	
-4.11545e-006	-4.91647e-006	0	
-4.08254e-006	-4.97617e-006	0	
-4.04346e-006	-5.03454e-006	0	
-3.99835e-006	-5.09178e-006	0	
-3.94739e-006	-5.14807e-006	0	
-3.89079e-006	-5.20356e-006	0	
-3.8288e-006	-5.25838e-006	0	
-3.76169e-006	-5.31262e-006	0	
-3.68969e-006	-5.36637e-006	0	
-3.61307e-006	-5.41969e-006	0	
-3.5321e-006	-5.47261e-006	0	
-3.44709e-006	-5.5251e-006	0	
-3.35831e-006	-5.57713e-006	0	
-3.26605e-006	-5.62863e-006	0	
-3.17058e-006	-5.67953e-006	0	
-3.07214e-006	-5.72972e-006	0	
-2.97099e-006	-5.77906e-006	0	
-2.86732e-006	-5.82739e-006	0	
-2.76132e-006	-5.87453e-006	0	
-2.6531e-006	-5.92028e-006	0	
-2.54278e-006	-5.96443e-006	0	
-2.43043e-006	-6.00679e-006	0	
-2.31608e-006	-6.04715e-006	0	
-2.19973e-006	-6.0853e-006	0	
-2.08136e-006	-6.12103e-006	0	
-1.96088e-006	-6.15417e-006	0	
-1.8382e-006	-6.18456e-006	0	
-1.7132e-006	-6.21203e-006	0	
-1.5857e-006	-6.23649e-006	0	
-1.45554e-006	-6.25783e-006	0	
-1.32251e-006	-6.276e-006	0	
-1.18642e-006	-6.29099e-006	0	
-1.04704e-006	-6.30279e-006	0	
-9.04173e-007	-6.31143e-006	0	
-7.57592e-007	-6.31698e-006	0	
-6.07087e-007	-6.31955e-006	0	
-4.52458e-007	-6.31927e-006	0	
-2.93531e-007	-6.31631e-006	0	
-1.30162e-007	-6.31087e-006	0	
3.77839e-008	-6.30317e-006	0	
2.10399e-007	-6.29347e-006	0	
3.87749e-007	-6.28206e-006	0	
5.69836e-007	-6.26925e-006	0	
7.5661e-007	-6.25538e-006	0	
9.4799e-007	-6.2408e-006	0	
1.14381e-006	-6.22586e-006	0	
1.34388e-006	-6.21093e-006	0	
1.54793e-006	-6.19638e-006	0	
1.75562e-006	-6.18259e-006	0	
1.96653e-006	-6.16989e-006	0	
2.18021e-006	-6.15861e-006	0	
2.39607e-006	-6.14902e-006	0	
2.61349e-006	-6.14134e-006	0	
2.83179e-006	-6.13568e-006	0	
3.05025e-006	-6.13201e-006	0	
3.26822e-006	-6.13006e-006	0	
3.48585e-006	-6.12901e-006	0	
-1.74515e-018	-3.2208e-018	0	
-2.40426e-007	-1.60414e-007	0	
-4.78727e-007	-3.10961e-007	0	
-6.95031e-007	-4.41932e-007	0	
-8.86733e-007	-5.46186e-007	0	
-1.05505e-006	-6.28442e-007	0	
-1.19401e-006	-6.91286e-007	0	
-1.28852e-006	-7.3269e-007	0	
-1.34471e-006	-7.54077e-007	0	
-1.55122e-006	-9.46187e-007	0	
-1.67714e-006	-1.09435e-006	0	
-1.82456e-006	-1.23582e-006	0	
-1.94676e-006	-1.37284e-006	0	
-2.06541e-006	-1.5201e-006	0	
-2.19521e-006	-1.66841e-006	0	
-2.32581e-006	-1.81486e-006	0	
-2.44971e-006	-1.96175e-006	0	
-2.56867e-006	-2.10943e-006	0	
-2.68506e-006	-2.25782e-006	0	
-2.80046e-006	-2.4048e-006	0	
-2.91563e-006	-2.54968e-006	0	
-3.03051e-006	-2.69161e-006	0	
-3.14399e-006	-2.82981e-006	0	
-3.25442e-006	-2.96378e-006	0	
-3.36026e-006	-3.09335e-006	0	
-3.46043e-006	-3.2188e-006	0	
-3.55415e-006	-3.34017e-006	0	
-3.64103e-006	-3.45756e-006	0	
-3.72088e-006	-3.57104e-006	0	
-3.79368e-006	-3.68067e-006	0	
-3.8595e-006	-3.78658e-006	0	
-3.91842e-006	-3.88891e-006	0	
-3.97056e-006	-3.98778e-006	0	
-4.01605e-006	-4.08332e-006	0	
-4.055e-006	-4.17562e-006	0	
-4.08747e-006	-4.2648e-006	0	
-4.11349e-006	-4.35098e-006	0	
-4.13308e-006	-4.43427e-006	0	
-4.14623e-006	-4.51481e-006	0	
-4.15289e-006	-4.59273e-006	0	
-4.15304e-006	-4.66818e-006	0	
-4.14664e-006	-4.74132e-006	0	
-4.1337e-006	-4.81233e-006	0	
-4.11424e-006	-4.88139e-006	0	
-4.08833e-006	-4.94869e-006	0	
-4.05605e-006	-5.0144e-006	0	
-4.01752e-006	-5.07869e-006	0	
-3.9729e-006	-5.14169e-006	0	
-3.92236e-006	-5.20357e-006	0	
-3.86612e-006	-5.26444e-006	0	
-3.80445e-006	-5.32441e-006	0	
-3.73761e-006	-5.38358e-006	0	
-3.66586e-006	-5.44203e-006	0	
-3.58947e-006	-5.49981e-006	0	
-3.50874e-006	-5.55693e-006	0	
-3.42397e-006	-5.61336e-006	0	
-3.33545e-006	-5.66909e-006	0	
-3.24348e-006	-5.72405e-006	0	
-3.14833e-006	-5.77818e-006	0	
-3.05028e-006	-5.83137e-006	0	
-2.94957e-006	-5.88352e-006	0	
-2.8464e-006	-5.93449e-006	0	
-2.74098e-006	-5.98412e-006	0	
-2.63342e-006	-6.03226e-006	0	
-2.52385e-006	-6.07872e-006	0	
-2.41232e-006	-6.12333e-006	0	
-2.29887e-006	-6.16592e-006	0	
-2.18351e-006	-6.2063e-006	0	
-2.06618e-006	-6.24431e-006	0	
-1.94683e-006	-6.2798e-006	0	
-1.82534e-006	-6.31262e-006	0	
-1.70157e-006	-6.34265e-006	0	
-1.57536e-006	-6.3698e-006	0	
-1.44651e-006	-6.394e-006	0	
-1.31481e-006	-6.4152e-006	0	
-1.18005e-006	-6.43338e-006	0	
-1.04201e-006	-6.44854e-006	0	
-9.00449e-007	-6.46074e-006	0	
-7.55147e-007	-6.47002e-006	0	
-6.05874e-007	-6.47648e-006	0	
-4.52415e-007	-6.48023e-006	0	
-2.94584e-007	-6.48143e-006	0	
-1.32226e-007	-6.48026e-006	0	
3.48044e-008	-6.47691e-006	0	
2.06619e-007	-6.4716e-006	0	
3.83284e-007	-6.4646e-006	0	
5.64815e-007	-6.45616e-006	0	
7.51172e-007	-6.44657e-006	0	
9.42269e-007	-6.43614e-006	0	
1.13796e-006	-6.42516e-006	0	
1.33804e-006	-6.41396e-006	0	
1.54225e-006	-6.40284e-006	0	
1.75024e-006	-6.39212e-006	0	
1.96159e-006	-6.38208e-006	0	
2.17581e-006	-6.37299e-006	0	
2.39232e-006	-6.36506e-006	0	
2.61046e-006	-6.35848e-006	0	
2.82951e-006	-6.35335e-006	0	
3.0487e-006	-6.34971e-006	0	
3.26731e-006	-6.34753e-006	0	
3.48492e-006	-6.34659e-006	0	
-1.19499e-018	-2.45468e-018	0	
-2.09292e-007	-1.14744e-007	0	
-4.35769e-007	-2.37759e-007	0	
-6.50866e-007	-3.58028e-007	0	
-8.46168e-007	-4.68181e-007	0	
-1.01906e-006	-5.67729e-007	0	
-1.166e-006	-6.56655e-007	0	
-1.2847e-006	-7.35465e-007	0	
-1.37156e-006	-8.21185e-007	0	
-1.52665e-006	-9.2805e-007	0	
-1.57639e-006	-9.31757e-007	0	
-1.77244e-006	-1.09979e-006	0	
-1.89072e-006	-1.24746e-006	0	
-1.99309e-006	-1.38761e-006	0	
-2.13277e-006	-1.53924e-006	0	
-2.26331e-006	-1.68877e-006	0	
-2.38572e-006	-1.8413e-006	0	
-2.50364e-006	-1.9938e-006	0	
-2.61988e-006	-2.14622e-006	0	
-2.73588e-006	-2.29771e-006	0	
-2.85219e-006	-2.44695e-006	0	
-2.96878e-006	-2.59325e-006	0	
-3.08435e-006	-2.73597e-006	0	
-3.19694e-006	-2.87473e-006	0	
-3.30473e-006	-3.00943e-006	0	
-3.40662e-006	-3.14037e-006	0	
-3.50198e-006	-3.26765e-006	0	
-3.59046e-006	-3.39125e-006	0	
-3.67193e-006	-3.51114e-006	0	
-3.74634e-006	-3.62723e-006	0	
-3.81371e-006	-3.73957e-006	0	
-3.87415e-006	-3.84826e-006	0	
-3.92776e-006	-3.95342e-006	0	
-3.97466e-006	-4.05517e-006	0	
-4.01498e-006	-4.15362e-006	0	
-4.04877e-006	-4.24891e-006	0	
-4.07608e-006	-4.34115e-006	0	
-4.09691e-006	-4.43046e-006	0	
-4.11124e-006	-4.51698e-006	0	
-4.11902e-006	-4.60085e-006	0	
-4.12022e-006	-4.6822e-006	0	
-4.1148e-006	-4.76122e-006	0	
-4.10276e-006	-4.83806e-006	0	
-4.08412e-006	-4.9129e-006	0	
-4.05894e-006	-4.98592e-006	0	
-4.02733e-006	-5.05727e-006	0	
-3.9894e-006	-5.1271e-006	0	
-3.94532e-006	-5.19554e-006	0	
-3.89527e-006	-5.26271e-006	0	
-3.83948e-006	-5.32871e-006	0	
-3.7782e-006	-5.39365e-006	0	
-3.71171e-006	-5.4576e-006	0	
-3.64028e-006	-5.52065e-006	0	
-3.5642e-006	-5.58285e-006	0	
-3.48378e-006	-5.6442e-006	0	
-3.39933e-006	-5.70467e-006	0	
-3.31116e-006	-5.76424e-006	0	
-3.21955e-006	-5.82286e-006	0	
-3.12481e-006	-5.88046e-006	0	
-3.02721e-006	-5.93697e-006	0	
-2.92699e-006	-5.99227e-006	0	
-2.82439e-006	-6.04626e-006	0	
-2.71959e-006	-6.09879e-006	0	
-2.61272e-006	-6.14974e-006	0	
-2.50391e-006	-6.19894e-006	0	
-2.39321e-006	-6.24624e-006	0	
-2.28066e-006	-6.29148e-006	0	
-2.16628e-006	-6.33451e-006	0	
-2.05e-006	-6.37519e-006	0	
-1.93174e-006	-6.41337e-006	0	
-1.81141e-006	-6.44895e-006	0	
-1.68885e-006	-6.48181e-006	0	
-1.56389e-006	-6.51188e-006	0	
-1.43631e-006	-6.53909e-006	0	
-1.3059e-006	-6.5634e-006	0	
-1.17245e-006	-6.58481e-006	0	
-1.0357e-006	-6.60332e-006	0	
-8.95427e-007	-6.61895e-006	0	
-7.51384e-007	-6.63178e-006	0	
-6.03329e-007	-6.64188e-006	0	
-4.51035e-007	-6.64935e-006	0	
-2.94312e-007	-6.65433e-006	0	
-1.32979e-007	-6.65698e-006	0	
3.31123e-008	-6.65746e-006	0	
2.0408e-007	-6.65598e-006	0	
3.80003e-007	-6.65277e-006	0	
5.60902e-007	-6.64804e-006	0	
7.46748e-007	-6.64204e-006	0	
9.37455e-007	-6.63504e-006	0	
1.13289e-006	-6.62731e-006	0	
1.33284e-006	-6.61911e-006	0	
1.53705e-006	-6.61073e-006	0	
1.74517e-006	-6.60242e-006	0	
1.95677e-006	-6.59443e-006	0	
2.17136e-006	-6.58701e-006	0	
2.38833e-006	-6.58035e-006	0	
2.60704e-006	-6.57464e-006	0	
2.82673e-006	-6.57002e-006	0	
3.0466e-006	-6.5666e-006	0	
3.26585e-006	-6.56442e-006	0	
3.48361e-006	-6.56336e-006	0	
-1.20259e-018	-2.21981e-018	0	
-1.99326e-007	-1.00479e-007	0	
-4.09248e-007	-2.06962e-007	0	
-6.14707e-007	-3.17411e-007	0	
-8.06386e-007	-4.27601e-007	0	
-9.78912e-007	-5.34699e-007	0	
-1.12914e-006	-6.37607e-007	0	
-1.25743e-006	-7.34697e-007	0	
-1.37459e-006	-8.21427e-007	0	
-1.50821e-006	-9.06676e-007	0	
-1.59643e-006	-1.00332e-006	0	
-1.7608e-006	-1.14647e-006	0	
-1.86609e-006	-1.18487e-006	0	
-1.90391e-006	-1.1857e-006	0	
-2.05967e-006	-1.3956e-006	0	
-2.19878e-006	-1.56462e-006	0	
-2.31859e-006	-1.72371e-006	0	
-2.43591e-006	-1.88331e-006	0	
-2.55161e-006	-2.03944e-006	0	
-2.6676e-006	-2.19567e-006	0	
-2.78504e-006	-2.35025e-006	0	
-2.90374e-006	-2.50223e-006	0	
-3.02198e-006	-2.65053e-006	0	
-3.13712e-006	-2.79479e-006	0	
-3.24704e-006	-2.93512e-006	0	
-3.35062e-006	-3.07181e-006	0	
-3.44749e-006	-3.20512e-006	0	
-3.53747e-006	-3.33493e-006	0	
-3.62049e-006	-3.46107e-006	0	
-3.69651e-006	-3.58345e-006	0	
-3.76549e-006	-3.702e-006	0	
-3.82747e-006	-3.8168e-006	0	
-3.88256e-006	-3.92799e-006	0	
-3.9309e-006	-4.0357e-006	0	
-3.9726e-006	-4.14005e-006	0	
-4.00775e-006	-4.24118e-006	0	
-4.03638e-006	-4.33921e-006	0	
-4.05849e-006	-4.43426e-006	0	
-4.07405e-006	-4.52645e-006	0	
-4.08301e-006	-4.61593e-006	0	
-4.08531e-006	-4.70285e-006	0	
-4.0809e-006	-4.78738e-006	0	
-4.06979e-006	-4.86969e-006	0	
-4.05199e-006	-4.94995e-006	0	
-4.02759e-006	-5.02833e-006	0	
-3.99666e-006	-5.10498e-006	0	
-3.95936e-006	-5.18004e-006	0	
-3.91585e-006	-5.25362e-006	0	
-3.86633e-006	-5.32584e-006	0	
-3.811e-006	-5.39677e-006	0	
-3.75015e-006	-5.46651e-006	0	
-3.68405e-006	-5.53514e-006	0	
-3.61299e-006	-5.60274e-006	0	
-3.53727e-006	-5.66934e-006	0	
-3.4572e-006	-5.73494e-006	0	
-3.37311e-006	-5.79953e-006	0	
-3.28531e-006	-5.86307e-006	0	
-3.19411e-006	-5.92553e-006	0	
-3.0998e-006	-5.98683e-006	0	
-3.00268e-006	-6.04691e-006	0	
-2.903e-006	-6.10567e-006	0	
-2.80099e-006	-6.163e-006	0	
-2.69683e-006	-6.21878e-006	0	
-2.59068e-006	-6.2729e-006	0	
-2.48264e-006	-6.32521e-006	0	
-2.37278e-006	-6.37557e-006	0	
-2.26116e-006	-6.42384e-006	0	
-2.14776e-006	-6.46987e-006	0	
-2.03252e-006	-6.51354e-006	0	
-1.91538e-006	-6.55472e-006	0	
-1.79621e-006	-6.59332e-006	0	
-1.67486e-006	-6.62924e-006	0	
-1.55114e-006	-6.66239e-006	0	
-1.42485e-006	-6.69275e-006	0	
-1.29575e-006	-6.72025e-006	0	
-1.16361e-006	-6.7449e-006	0	
-1.02818e-006	-6.76669e-006	0	
-8.89214e-007	-6.78567e-006	0	
-7.46459e-007	-6.80187e-006	0	
-5.99653e-007	-6.81538e-006	0	
-4.48576e-007	-6.82629e-006	0	
-2.93008e-007	-6.8347e-006	0	
-1.32764e-007	-6.84077e-006	0	
3.23176e-008	-6.84464e-006	0	
2.02357e-007	-6.8465e-006	0	
3.77447e-007	-6.84653e-006	0	
5.57616e-007	-6.84494e-006	0	
7.42835e-007	-6.84195e-006	0	
9.33034e-007	-6.83778e-006	0	
1.12808e-006	-6.83268e-006	0	
1.32777e-006	-6.82689e-006	0	
1.53184e-006	-6.82065e-006	0	
1.73995e-006	-6.8142e-006	0	
1.95167e-006	-6.80778e-006	0	
2.16651e-006	-6.8016e-006	0	
2.38387e-006	-6.79589e-006	0	
2.60309e-006	-6.79083e-006	0	
2.82341e-006	-6.7866e-006	0	
3.044e-006	-6.78335e-006	0	
3.26397e-006	-6.78119e-006	0	
3.48221e-006	-6.78009e-006	0	
-1.20893e-018	-2.0995e-018	0	
-1.93165e-007	-9.50464e-008	0	
-3.91029e-007	-1.94965e-007	0	
-5.85953e-007	-3.00186e-007	0	
-7.70701e-007	-4.08647e-007	0	
-9.40355e-007	-5.17676e-007	0	
-1.09244e-006	-6.24775e-007	0	
-1.22818e-006	-7.2686e-007	0	
-1.35583e-006	-8.22389e-007	0	
-1.47864e-006	-9.16211e-007	0	
-1.59588e-006	-1.0056e-006	0	
-1.73397e-006	-1.08852e-006	0	
-1.85128e-006	-1.16047e-006	0	
-1.91449e-006	-1.21276e-006	0	
-1.93898e-006	-1.24135e-006	0	
-2.13867e-006	-1.45619e-006	0	
-2.24295e-006	-1.62096e-006	0	
-2.36858e-006	-1.78053e-006	0	
-2.48067e-006	-1.93742e-006	0	
-2.59547e-006	-2.09833e-006	0	
-2.71307e-006	-2.25814e-006	0	
-2.83434e-006	-2.41693e-006	0	
-2.9562e-006	-2.57188e-006	0	
-3.07464e-006	-2.72253e-006	0	
-3.18691e-006	-2.86925e-006	0	
-3.29218e-006	-3.01242e-006	0	
-3.3905e-006	-3.15224e-006	0	
-3.48199e-006	-3.28852e-006	0	
-3.56664e-006	-3.42098e-006	0	
-3.64434e-006	-3.54952e-006	0	
-3.71499e-006	-3.67407e-006	0	
-3.77856e-006	-3.79473e-006	0	
-3.83516e-006	-3.91167e-006	0	
-3.88495e-006	-4.02505e-006	0	
-3.92806e-006	-4.13502e-006	0	
-3.9646e-006	-4.24171e-006	0	
-3.9946e-006	-4.34524e-006	0	
-4.01807e-006	-4.44571e-006	0	
-4.03493e-006	-4.54324e-006	0	
-4.04512e-006	-4.638e-006	0	
-4.04856e-006	-4.73013e-006	0	
-4.04521e-006	-4.81983e-006	0	
-4.03505e-006	-4.90727e-006	0	
-4.01813e-006	-4.99263e-006	0	
-3.9945e-006	-5.07606e-006	0	
-3.96428e-006	-5.15772e-006	0	
-3.92761e-006	-5.23773e-006	0	
-3.88467e-006	-5.31622e-006	0	
-3.83567e-006	-5.39327e-006	0	
-3.78083e-006	-5.46897e-006	0	
-3.72041e-006	-5.54338e-006	0	
-3.6547e-006	-5.6166e-006	0	
-3.58401e-006	-5.68869e-006	0	
-3.50864e-006	-5.75968e-006	0	
-3.42893e-006	-5.82958e-006	0	
-3.3452e-006	-5.89836e-006	0	
-3.25778e-006	-5.966e-006	0	
-3.16698e-006	-6.03246e-006	0	
-3.07313e-006	-6.09766e-006	0	
-2.9765e-006	-6.16155e-006	0	
-2.87736e-006	-6.22402e-006	0	
-2.77594e-006	-6.28499e-006	0	
-2.67244e-006	-6.34434e-006	0	
-2.56701e-006	-6.40194e-006	0	
-2.45976e-006	-6.45768e-006	0	
-2.35078e-006	-6.51141e-006	0	
-2.2401e-006	-6.56301e-006	0	
-2.1277e-006	-6.61234e-006	0	
-2.01355e-006	-6.65928e-006	0	
-1.89755e-006	-6.70372e-006	0	
-1.77957e-006	-6.74556e-006	0	
-1.65946e-006	-6.78471e-006	0	
-1.53703e-006	-6.82111e-006	0	
-1.41206e-006	-6.8547e-006	0	
-1.28432e-006	-6.88544e-006	0	
-1.15355e-006	-6.91332e-006	0	
-1.0195e-006	-6.93836e-006	0	
-8.81913e-007	-6.96057e-006	0	
-7.40514e-007	-6.98e-006	0	
-5.95039e-007	-6.99671e-006	0	
-4.45259e-007	-7.01079e-006	0	
-2.90941e-007	-7.02234e-006	0	
-1.31884e-007	-7.03147e-006	0	
3.20806e-008	-7.03834e-006	0	
2.01085e-007	-7.0431e-006	0	
3.75226e-007	-7.04592e-006	0	
5.5454e-007	-7.04698e-006	0	
7.39011e-007	-7.04648e-006	0	
9.28572e-007	-7.04463e-006	0	
1.1231e-006	-7.04164e-006	0	
1.32241e-006	-7.03774e-006	0	
1.52622e-006	-7.03317e-006	0	
1.73421e-006	-7.02813e-006	0	
1.94597e-006	-7.02286e-006	0	
2.16099e-006	-7.01759e-006	0	
2.3787e-006	-7.01253e-006	0	
2.59843e-006	-7.00789e-006	0	
2.81944e-006	-7.00388e-006	0	
3.04087e-006	-7.0007e-006	0	
3.26177e-006	-6.9985e-006	0	
3.48094e-006	-6.99739e-006	0	
-1.19831e-018	-2.06671e-018	0	
-1.88099e-007	-9.364e-008	0	
-3.76781e-007	-1.9161e-007	0	
-5.62191e-007	-2.94682e-007	0	
-7.39676e-007	-4.01836e-007	0	
-9.05585e-007	-5.10952e-007	0	
-1.05828e-006	-6.19375e-007	0	
-1.19883e-006	-7.2459e-007	0	
-1.33053e-006	-8.2533e-007	0	
-1.45691e-006	-9.21487e-007	0	
-1.5823e-006	-1.01172e-006	0	
-1.70915e-006	-1.09912e-006	0	
-1.82583e-006	-1.18717e-006	0	
-1.9157e-006	-1.27047e-006	0	
-1.97326e-006	-1.36497e-006	0	
-2.11404e-006	-1.48506e-006	0	
-2.13818e-006	-1.48906e-006	0	
-2.311e-006	-1.68787e-006	0	
-2.40332e-006	-1.84419e-006	0	
-2.52227e-006	-2.00357e-006	0	
-2.63506e-006	-2.16653e-006	0	
-2.75875e-006	-2.33511e-006	0	
-2.8867e-006	-2.4982e-006	0	
-3.00896e-006	-2.65665e-006	0	
-3.12379e-006	-2.81114e-006	0	
-3.23077e-006	-2.96198e-006	0	
-3.33064e-006	-3.10913e-006	0	
-3.42385e-006	-3.2523e-006	0	
-3.51036e-006	-3.3912e-006	0	
-3.58995e-006	-3.52576e-006	0	
-3.66242e-006	-3.65606e-006	0	
-3.72766e-006	-3.78228e-006	0	
-3.7858e-006	-3.90465e-006	0	
-3.83704e-006	-4.02338e-006	0	
-3.88157e-006	-4.13865e-006	0	
-3.91953e-006	-4.25059e-006	0	
-3.95098e-006	-4.35929e-006	0	
-3.97587e-006	-4.46485e-006	0	
-3.99411e-006	-4.56738e-006	0	
-4.00561e-006	-4.66706e-006	0	
-4.01026e-006	-4.76407e-006	0	
-4.00799e-006	-4.85859e-006	0	
-3.99881e-006	-4.95084e-006	0	
-3.98275e-006	-5.04099e-006	0	
-3.9599e-006	-5.1292e-006	0	
-3.93037e-006	-5.21562e-006	0	
-3.89432e-006	-5.30036e-006	0	
-3.85194e-006	-5.38354e-006	0	
-3.80345e-006	-5.46525e-006	0	
-3.74906e-006	-5.54557e-006	0	
-3.68905e-006	-5.62455e-006	0	
-3.62371e-006	-5.70229e-006	0	
-3.55335e-006	-5.77884e-006	0	
-3.47831e-006	-5.85423e-006	0	
-3.39892e-006	-5.92847e-006	0	
-3.31552e-006	-6.00153e-006	0	
-3.22845e-006	-6.07339e-006	0	
-3.13804e-006	-6.14399e-006	0	
-3.04461e-006	-6.21329e-006	0	
-2.94845e-006	-6.28119e-006	0	
-2.84984e-006	-6.34762e-006	0	
-2.74902e-006	-6.41247e-006	0	
-2.64618e-006	-6.47565e-006	0	
-2.54148e-006	-6.53702e-006	0	
-2.43505e-006	-6.59646e-006	0	
-2.32696e-006	-6.65385e-006	0	
-2.21724e-006	-6.70904e-006	0	
-2.10589e-006	-6.76192e-006	0	
-1.99286e-006	-6.81237e-006	0	
-1.87804e-006	-6.86027e-006	0	
-1.76132e-006	-6.90554e-006	0	
-1.64252e-006	-6.94808e-006	0	
-1.52145e-006	-6.98783e-006	0	
-1.39789e-006	-7.02473e-006	0	
-1.27159e-006	-7.05875e-006	0	
-1.14229e-006	-7.08986e-006	0	
-1.00972e-006	-7.11809e-006	0	
-8.73609e-007	-7.14343e-006	0	
-7.33681e-007	-7.16594e-006	0	
-5.89661e-007	-7.18567e-006	0	
-4.41292e-007	-7.20269e-006	0	
-2.88346e-007	-7.21709e-006	0	
-1.30608e-007	-7.22899e-006	0	
3.21081e-008	-7.23851e-006	0	
1.99943e-007	-7.24579e-006	0	
3.72997e-007	-7.25099e-006	0	
5.51319e-007	-7.25427e-006	0	
7.34906e-007	-7.25583e-006	0	
9.23701e-007	-7.25585e-006	0	
1.11759e-006	-7.25455e-006	0	
1.31639e-006	-7.25212e-006	0	
1.51985e-006	-7.24879e-006	0	
1.72764e-006	-7.24479e-006	0	
1.93936e-006	-7.24033e-006	0	
2.15454e-006	-7.23565e-006	0	
2.3726e-006	-7.23097e-006	0	
2.59289e-006	-7.22654e-006	0	
2.81468e-006	-7.22259e-006	0	
3.03712e-006	-7.21935e-006	0	
3.25922e-006	-7.21705e-006	0	
3.4798e-006	-7.21591e-006	0	
-1.17762e-018	-2.07238e-018	0	
-1.83029e-007	-9.40856e-008	0	
-3.64131e-007	-1.9234e-007	0	
-5.41466e-007	-2.9528e-007	0	
-7.12322e-007	-4.0224e-007	0	
-8.74341e-007	-5.11575e-007	0	
-1.02641e-006	-6.21141e-007	0	
-1.16902e-006	-7.28871e-007	0	
-1.30409e-006	-8.33354e-007	0	
-1.43393e-006	-9.34116e-007	0	
-1.56066e-006	-1.03161e-006	0	
-1.68406e-006	-1.12816e-006	0	
-1.79691e-006	-1.22599e-006	0	
-1.89372e-006	-1.32213e-006	0	
-1.98364e-006	-1.40913e-006	0	
-2.09617e-006	-1.49505e-006	0	
-2.16066e-006	-1.58961e-006	0	
-2.28362e-006	-1.70416e-006	0	
-2.29801e-006	-1.70804e-006	0	
-2.45546e-006	-1.90842e-006	0	
-2.54241e-006	-2.07387e-006	0	
-2.67826e-006	-2.25298e-006	0	
-2.81085e-006	-2.42679e-006	0	
-2.93938e-006	-2.59656e-006	0	
-3.0568e-006	-2.76083e-006	0	
-3.16555e-006	-2.92108e-006	0	
-3.26738e-006	-3.07656e-006	0	
-3.36281e-006	-3.22702e-006	0	
-3.45171e-006	-3.37237e-006	0	
-3.53358e-006	-3.5127e-006	0	
-3.60806e-006	-3.64836e-006	0	
-3.67505e-006	-3.77973e-006	0	
-3.73473e-006	-3.90715e-006	0	
-3.78741e-006	-4.03088e-006	0	
-3.83337e-006	-4.15109e-006	0	
-3.8728e-006	-4.26792e-006	0	
-3.90575e-006	-4.38144e-006	0	
-3.93216e-006	-4.49171e-006	0	
-3.95189e-006	-4.59888e-006	0	
-3.96477e-006	-4.70312e-006	0	
-3.97068e-006	-4.80463e-006	0	
-3.96952e-006	-4.90366e-006	0	
-3.96131e-006	-5.0004e-006	0	
-3.94609e-006	-5.09506e-006	0	
-3.92399e-006	-5.1878e-006	0	
-3.89513e-006	-5.27875e-006	0	