# vtk DataFile Version 4.1
vtk output
ASCII
DATASET UNSTRUCTURED_GRID

POINTS	30401	float
0	0	0	
0	1	0	
0	2	0	
0	3	0	
0	4	0	
0	5	0	
0	6	0	
0	7	0	
0	8	0	
0	9	0	
0	10	0	
0	11	0	
0	12	0	
0	13	0	
0	14	0	
0	15	0	
0	16	0	
0	17	0	
0	18	0	
0	19	0	
0	20	0	
0	21	0	
0	22	0	
0	23	0	
0	24	0	
0	25	0	
0	26	0	
0	27	0	
0	28	0	
0	29	0	
0	30	0	
0	31	0	
0	32	0	
0	33	0	
0	34	0	
0	35	0	
0	36	0	
0	37	0	
0	38	0	
0	39	0	
0	40	0	
0	41	0	
0	42	0	
0	43	0	
0	44	0	
0	45	0	
0	46	0	
0	47	0	
0	48	0	
0	49	0	
0	50	0	
0	51	0	
0	52	0	
0	53	0	
0	54	0	
0	55	0	
0	56	0	
0	57	0	
0	58	0	
0	59	0	
0	60	0	
0	61	0	
0	62	0	
0	63	0	
0	64	0	
0	65	0	
0	66	0	
0	67	0	
0	68	0	
0	69	0	
0	70	0	
0	71	0	
0	72	0	
0	73	0	
0	74	0	
0	75	0	
0	76	0	
0	77	0	
0	78	0	
0	79	0	
0	80	0	
0	81	0	
0	82	0	
0	83	0	
0	84	0	
0	85	0	
0	86	0	
0	87	0	
0	88	0	
0	89	0	
0	90	0	
0	91	0	
0	92	0	
0	93	0	
0	94	0	
0	95	0	
0	96	0	
0	97	0	
0	98	0	
0	99	0	
0	100	0	
1	0	0	
1	1	0	
1	2	0	
1	3	0	
1	4	0	
1	5	0	
1	6	0	
1	7	0	
1	8	0	
1	9	0	
1	10	0	
1	11	0	
1	12	0	
1	13	0	
1	14	0	
1	15	0	
1	16	0	
1	17	0	
1	18	0	
1	19	0	
1	20	0	
1	21	0	
1	22	0	
1	23	0	
1	24	0	
1	25	0	
1	26	0	
1	27	0	
1	28	0	
1	29	0	
1	30	0	
1	31	0	
1	32	0	
1	33	0	
1	34	0	
1	35	0	
1	36	0	
1	37	0	
1	38	0	
1	39	0	
1	40	0	
1	41	0	
1	42	0	
1	43	0	
1	44	0	
1	45	0	
1	46	0	
1	47	0	
1	48	0	
1	49	0	
1	50	0	
1	51	0	
1	52	0	
1	53	0	
1	54	0	
1	55	0	
1	56	0	
1	57	0	
1	58	0	
1	59	0	
1	60	0	
1	61	0	
1	62	0	
1	63	0	
1	64	0	
1	65	0	
1	66	0	
1	67	0	
1	68	0	
1	69	0	
1	70	0	
1	71	0	
1	72	0	
1	73	0	
1	74	0	
1	75	0	
1	76	0	
1	77	0	
1	78	0	
1	79	0	
1	80	0	
1	81	0	
1	82	0	
1	83	0	
1	84	0	
1	85	0	
1	86	0	
1	87	0	
1	88	0	
1	89	0	
1	90	0	
1	91	0	
1	92	0	
1	93	0	
1	94	0	
1	95	0	
1	96	0	
1	97	0	
1	98	0	
1	99	0	
1	100	0	
2	0	0	
2	1	0	
2	2	0	
2	3	0	
2	4	0	
2	5	0	
2	6	0	
2	7	0	
2	8	0	
2	9	0	
2	10	0	
2	11	0	
2	12	0	
2	13	0	
2	14	0	
2	15	0	
2	16	0	
2	17	0	
2	18	0	
2	19	0	
2	20	0	
2	21	0	
2	22	0	
2	23	0	
2	24	0	
2	25	0	
2	26	0	
2	27	0	
2	28	0	
2	29	0	
2	30	0	
2	31	0	
2	32	0	
2	33	0	
2	34	0	
2	35	0	
2	36	0	
2	37	0	
2	38	0	
2	39	0	
2	40	0	
2	41	0	
2	42	0	
2	43	0	
2	44	0	
2	45	0	
2	46	0	
2	47	0	
2	48	0	
2	49	0	
2	50	0	
2	51	0	
2	52	0	
2	53	0	
2	54	0	
2	55	0	
2	56	0	
2	57	0	
2	58	0	
2	59	0	
2	60	0	
2	61	0	
2	62	0	
2	63	0	
2	64	0	
2	65	0	
2	66	0	
2	67	0	
2	68	0	
2	69	0	
2	70	0	
2	71	0	
2	72	0	
2	73	0	
2	74	0	
2	75	0	
2	76	0	
2	77	0	
2	78	0	
2	79	0	
2	80	0	
2	81	0	
2	82	0	
2	83	0	
2	84	0	
2	85	0	
2	86	0	
2	87	0	
2	88	0	
2	89	0	
2	90	0	
2	91	0	
2	92	0	
2	93	0	
2	94	0	
2	95	0	
2	96	0	
2	97	0	
2	98	0	
2	99	0	
2	100	0	
3	0	0	
3	1	0	
3	2	0	
3	3	0	
3	4	0	
3	5	0	
3	6	0	
3	7	0	
3	8	0	
3	9	0	
3	10	0	
3	11	0	
3	12	0	
3	13	0	
3	14	0	
3	15	0	
3	16	0	
3	17	0	
3	18	0	
3	19	0	
3	20	0	
3	21	0	
3	22	0	
3	23	0	
3	24	0	
3	25	0	
3	26	0	
3	27	0	
3	28	0	
3	29	0	
3	30	0	
3	31	0	
3	32	0	
3	33	0	
3	34	0	
3	35	0	
3	36	0	
3	37	0	
3	38	0	
3	39	0	
3	40	0	
3	41	0	
3	42	0	
3	43	0	
3	44	0	
3	45	0	
3	46	0	
3	47	0	
3	48	0	
3	49	0	
3	50	0	
3	51	0	
3	52	0	
3	53	0	
3	54	0	
3	55	0	
3	56	0	
3	57	0	
3	58	0	
3	59	0	
3	60	0	
3	61	0	
3	62	0	
3	63	0	
3	64	0	
3	65	0	
3	66	0	
3	67	0	
3	68	0	
3	69	0	
3	70	0	
3	71	0	
3	72	0	
3	73	0	
3	74	0	
3	75	0	
3	76	0	
3	77	0	
3	78	0	
3	79	0	
3	80	0	
3	81	0	
3	82	0	
3	83	0	
3	84	0	
3	85	0	
3	86	0	
3	87	0	
3	88	0	
3	89	0	
3	90	0	
3	91	0	
3	92	0	
3	93	0	
3	94	0	
3	95	0	
3	96	0	
3	97	0	
3	98	0	
3	99	0	
3	100	0	
4	0	0	
4	1	0	
4	2	0	
4	3	0	
4	4	0	
4	5	0	
4	6	0	
4	7	0	
4	8	0	
4	9	0	
4	10	0	
4	11	0	
4	12	0	
4	13	0	
4	14	0	
4	15	0	
4	16	0	
4	17	0	
4	18	0	
4	19	0	
4	20	0	
4	21	0	
4	22	0	
4	23	0	
4	24	0	
4	25	0	
4	26	0	
4	27	0	
4	28	0	
4	29	0	
4	30	0	
4	31	0	
4	32	0	
4	33	0	
4	34	0	
4	35	0	
4	36	0	
4	37	0	
4	38	0	
4	39	0	
4	40	0	
4	41	0	
4	42	0	
4	43	0	
4	44	0	
4	45	0	
4	46	0	
4	47	0	
4	48	0	
4	49	0	
4	50	0	
4	51	0	
4	52	0	
4	53	0	
4	54	0	
4	55	0	
4	56	0	
4	57	0	
4	58	0	
4	59	0	
4	60	0	
4	61	0	
4	62	0	
4	63	0	
4	64	0	
4	65	0	
4	66	0	
4	67	0	
4	68	0	
4	69	0	
4	70	0	
4	71	0	
4	72	0	
4	73	0	
4	74	0	
4	75	0	
4	76	0	
4	77	0	
4	78	0	
4	79	0	
4	80	0	
4	81	0	
4	82	0	
4	83	0	
4	84	0	
4	85	0	
4	86	0	
4	87	0	
4	88	0	
4	89	0	
4	90	0	
4	91	0	
4	92	0	
4	93	0	
4	94	0	
4	95	0	
4	96	0	
4	97	0	
4	98	0	
4	99	0	
4	100	0	
5	0	0	
5	1	0	
5	2	0	
5	3	0	
5	4	0	
5	5	0	
5	6	0	
5	7	0	
5	8	0	
5	9	0	
5	10	0	
5	11	0	
5	12	0	
5	13	0	
5	14	0	
5	15	0	
5	16	0	
5	17	0	
5	18	0	
5	19	0	
5	20	0	
5	21	0	
5	22	0	
5	23	0	
5	24	0	
5	25	0	
5	26	0	
5	27	0	
5	28	0	
5	29	0	
5	30	0	
5	31	0	
5	32	0	
5	33	0	
5	34	0	
5	35	0	
5	36	0	
5	37	0	
5	38	0	
5	39	0	
5	40	0	
5	41	0	
5	42	0	
5	43	0	
5	44	0	
5	45	0	
5	46	0	
5	47	0	
5	48	0	
5	49	0	
5	50	0	
5	51	0	
5	52	0	
5	53	0	
5	54	0	
5	55	0	
5	56	0	
5	57	0	
5	58	0	
5	59	0	
5	60	0	
5	61	0	
5	62	0	
5	63	0	
5	64	0	
5	65	0	
5	66	0	
5	67	0	
5	68	0	
5	69	0	
5	70	0	
5	71	0	
5	72	0	
5	73	0	
5	74	0	
5	75	0	
5	76	0	
5	77	0	
5	78	0	
5	79	0	
5	80	0	
5	81	0	
5	82	0	
5	83	0	
5	84	0	
5	85	0	
5	86	0	
5	87	0	
5	88	0	
5	89	0	
5	90	0	
5	91	0	
5	92	0	
5	93	0	
5	94	0	
5	95	0	
5	96	0	
5	97	0	
5	98	0	
5	99	0	
5	100	0	
6	0	0	
6	1	0	
6	2	0	
6	3	0	
6	4	0	
6	5	0	
6	6	0	
6	7	0	
6	8	0	
6	9	0	
6	10	0	
6	11	0	
6	12	0	
6	13	0	
6	14	0	
6	15	0	
6	16	0	
6	17	0	
6	18	0	
6	19	0	
6	20	0	
6	21	0	
6	22	0	
6	23	0	
6	24	0	
6	25	0	
6	26	0	
6	27	0	
6	28	0	
6	29	0	
6	30	0	
6	31	0	
6	32	0	
6	33	0	
6	34	0	
6	35	0	
6	36	0	
6	37	0	
6	38	0	
6	39	0	
6	40	0	
6	41	0	
6	42	0	
6	43	0	
6	44	0	
6	45	0	
6	46	0	
6	47	0	
6	48	0	
6	49	0	
6	50	0	
6	51	0	
6	52	0	
6	53	0	
6	54	0	
6	55	0	
6	56	0	
6	57	0	
6	58	0	
6	59	0	
6	60	0	
6	61	0	
6	62	0	
6	63	0	
6	64	0	
6	65	0	
6	66	0	
6	67	0	
6	68	0	
6	69	0	
6	70	0	
6	71	0	
6	72	0	
6	73	0	
6	74	0	
6	75	0	
6	76	0	
6	77	0	
6	78	0	
6	79	0	
6	80	0	
6	81	0	
6	82	0	
6	83	0	
6	84	0	
6	85	0	
6	86	0	
6	87	0	
6	88	0	
6	89	0	
6	90	0	
6	91	0	
6	92	0	
6	93	0	
6	94	0	
6	95	0	
6	96	0	
6	97	0	
6	98	0	
6	99	0	
6	100	0	
7	0	0	
7	1	0	
7	2	0	
7	3	0	
7	4	0	
7	5	0	
7	6	0	
7	7	0	
7	8	0	
7	9	0	
7	10	0	
7	11	0	
7	12	0	
7	13	0	
7	14	0	
7	15	0	
7	16	0	
7	17	0	
7	18	0	
7	19	0	
7	20	0	
7	21	0	
7	22	0	
7	23	0	
7	24	0	
7	25	0	
7	26	0	
7	27	0	
7	28	0	
7	29	0	
7	30	0	
7	31	0	
7	32	0	
7	33	0	
7	34	0	
7	35	0	
7	36	0	
7	37	0	
7	38	0	
7	39	0	
7	40	0	
7	41	0	
7	42	0	
7	43	0	
7	44	0	
7	45	0	
7	46	0	
7	47	0	
7	48	0	
7	49	0	
7	50	0	
7	51	0	
7	52	0	
7	53	0	
7	54	0	
7	55	0	
7	56	0	
7	57	0	
7	58	0	
7	59	0	
7	60	0	
7	61	0	
7	62	0	
7	63	0	
7	64	0	
7	65	0	
7	66	0	
7	67	0	
7	68	0	
7	69	0	
7	70	0	
7	71	0	
7	72	0	
7	73	0	
7	74	0	
7	75	0	
7	76	0	
7	77	0	
7	78	0	
7	79	0	
7	80	0	
7	81	0	
7	82	0	
7	83	0	
7	84	0	
7	85	0	
7	86	0	
7	87	0	
7	88	0	
7	89	0	
7	90	0	
7	91	0	
7	92	0	
7	93	0	
7	94	0	
7	95	0	
7	96	0	
7	97	0	
7	98	0	
7	99	0	
7	100	0	
8	0	0	
8	1	0	
8	2	0	
8	3	0	
8	4	0	
8	5	0	
8	6	0	
8	7	0	
8	8	0	
8	9	0	
8	10	0	
8	11	0	
8	12	0	
8	13	0	
8	14	0	
8	15	0	
8	16	0	
8	17	0	
8	18	0	
8	19	0	
8	20	0	
8	21	0	
8	22	0	
8	23	0	
8	24	0	
8	25	0	
8	26	0	
8	27	0	
8	28	0	
8	29	0	
8	30	0	
8	31	0	
8	32	0	
8	33	0	
8	34	0	
8	35	0	
8	36	0	
8	37	0	
8	38	0	
8	39	0	
8	40	0	
8	41	0	
8	42	0	
8	43	0	
8	44	0	
8	45	0	
8	46	0	
8	47	0	
8	48	0	
8	49	0	
8	50	0	
8	51	0	
8	52	0	
8	53	0	
8	54	0	
8	55	0	
8	56	0	
8	57	0	
8	58	0	
8	59	0	
8	60	0	
8	61	0	
8	62	0	
8	63	0	
8	64	0	
8	65	0	
8	66	0	
8	67	0	
8	68	0	
8	69	0	
8	70	0	
8	71	0	
8	72	0	
8	73	0	
8	74	0	
8	75	0	
8	76	0	
8	77	0	
8	78	0	
8	79	0	
8	80	0	
8	81	0	
8	82	0	
8	83	0	
8	84	0	
8	85	0	
8	86	0	
8	87	0	
8	88	0	
8	89	0	
8	90	0	
8	91	0	
8	92	0	
8	93	0	
8	94	0	
8	95	0	
8	96	0	
8	97	0	
8	98	0	
8	99	0	
8	100	0	
9	0	0	
9	1	0	
9	2	0	
9	3	0	
9	4	0	
9	5	0	
9	6	0	
9	7	0	
9	8	0	
9	9	0	
9	10	0	
9	11	0	
9	12	0	
9	13	0	
9	14	0	
9	15	0	
9	16	0	
9	17	0	
9	18	0	
9	19	0	
9	20	0	
9	21	0	
9	22	0	
9	23	0	
9	24	0	
9	25	0	
9	26	0	
9	27	0	
9	28	0	
9	29	0	
9	30	0	
9	31	0	
9	32	0	
9	33	0	
9	34	0	
9	35	0	
9	36	0	
9	37	0	
9	38	0	
9	39	0	
9	40	0	
9	41	0	
9	42	0	
9	43	0	
9	44	0	
9	45	0	
9	46	0	
9	47	0	
9	48	0	
9	49	0	
9	50	0	
9	51	0	
9	52	0	
9	53	0	
9	54	0	
9	55	0	
9	56	0	
9	57	0	
9	58	0	
9	59	0	
9	60	0	
9	61	0	
9	62	0	
9	63	0	
9	64	0	
9	65	0	
9	66	0	
9	67	0	
9	68	0	
9	69	0	
9	70	0	
9	71	0	
9	72	0	
9	73	0	
9	74	0	
9	75	0	
9	76	0	
9	77	0	
9	78	0	
9	79	0	
9	80	0	
9	81	0	
9	82	0	
9	83	0	
9	84	0	
9	85	0	
9	86	0	
9	87	0	
9	88	0	
9	89	0	
9	90	0	
9	91	0	
9	92	0	
9	93	0	
9	94	0	
9	95	0	
9	96	0	
9	97	0	
9	98	0	
9	99	0	
9	100	0	
10	0	0	
10	1	0	
10	2	0	
10	3	0	
10	4	0	
10	5	0	
10	6	0	
10	7	0	
10	8	0	
10	9	0	
10	10	0	
10	11	0	
10	12	0	
10	13	0	
10	14	0	
10	15	0	
10	16	0	
10	17	0	
10	18	0	
10	19	0	
10	20	0	
10	21	0	
10	22	0	
10	23	0	
10	24	0	
10	25	0	
10	26	0	
10	27	0	
10	28	0	
10	29	0	
10	30	0	
10	31	0	
10	32	0	
10	33	0	
10	34	0	
10	35	0	
10	36	0	
10	37	0	
10	38	0	
10	39	0	
10	40	0	
10	41	0	
10	42	0	
10	43	0	
10	44	0	
10	45	0	
10	46	0	
10	47	0	
10	48	0	
10	49	0	
10	50	0	
10	51	0	
10	52	0	
10	53	0	
10	54	0	
10	55	0	
10	56	0	
10	57	0	
10	58	0	
10	59	0	
10	60	0	
10	61	0	
10	62	0	
10	63	0	
10	64	0	
10	65	0	
10	66	0	
10	67	0	
10	68	0	
10	69	0	
10	70	0	
10	71	0	
10	72	0	
10	73	0	
10	74	0	
10	75	0	
10	76	0	
10	77	0	
10	78	0	
10	79	0	
10	80	0	
10	81	0	
10	82	0	
10	83	0	
10	84	0	
10	85	0	
10	86	0	
10	87	0	
10	88	0	
10	89	0	
10	90	0	
10	91	0	
10	92	0	
10	93	0	
10	94	0	
10	95	0	
10	96	0	
10	97	0	
10	98	0	
10	99	0	
10	100	0	
11	0	0	
11	1	0	
11	2	0	
11	3	0	
11	4	0	
11	5	0	
11	6	0	
11	7	0	
11	8	0	
11	9	0	
11	10	0	
11	11	0	
11	12	0	
11	13	0	
11	14	0	
11	15	0	
11	16	0	
11	17	0	
11	18	0	
11	19	0	
11	20	0	
11	21	0	
11	22	0	
11	23	0	
11	24	0	
11	25	0	
11	26	0	
11	27	0	
11	28	0	
11	29	0	
11	30	0	
11	31	0	
11	32	0	
11	33	0	
11	34	0	
11	35	0	
11	36	0	
11	37	0	
11	38	0	
11	39	0	
11	40	0	
11	41	0	
11	42	0	
11	43	0	
11	44	0	
11	45	0	
11	46	0	
11	47	0	
11	48	0	
11	49	0	
11	50	0	
11	51	0	
11	52	0	
11	53	0	
11	54	0	
11	55	0	
11	56	0	
11	57	0	
11	58	0	
11	59	0	
11	60	0	
11	61	0	
11	62	0	
11	63	0	
11	64	0	
11	65	0	
11	66	0	
11	67	0	
11	68	0	
11	69	0	
11	70	0	
11	71	0	
11	72	0	
11	73	0	
11	74	0	
11	75	0	
11	76	0	
11	77	0	
11	78	0	
11	79	0	
11	80	0	
11	81	0	
11	82	0	
11	83	0	
11	84	0	
11	85	0	
11	86	0	
11	87	0	
11	88	0	
11	89	0	
11	90	0	
11	91	0	
11	92	0	
11	93	0	
11	94	0	
11	95	0	
11	96	0	
11	97	0	
11	98	0	
11	99	0	
11	100	0	
12	0	0	
12	1	0	
12	2	0	
12	3	0	
12	4	0	
12	5	0	
12	6	0	
12	7	0	
12	8	0	
12	9	0	
12	10	0	
12	11	0	
12	12	0	
12	13	0	
[...]
POINT_DATA	30401
VECTORS d float
-8.13629e-017	-1.48563e-016	0	
-6.33812e-006	-4.45435e-006	0	
-1.23856e-005	-5.70238e-006	0	
-1.7208e-005	-5.75858e-006	0	
-2.31159e-005	-7.35313e-006	0	
-2.73098e-005	-8.21478e-006	0	
-3.14518e-005	-8.8618e-006	0	
-3.48941e-005	-9.31939e-006	0	
-3.78888e-005	-9.77835e-006	0	
-4.0423e-005	-1.01292e-005	0	
-4.25021e-005	-1.04542e-005	0	
-4.42026e-005	-1.07663e-005	0	
-4.55374e-005	-1.10629e-005	0	
-4.64927e-005	-1.13629e-005	0	
-4.70923e-005	-1.16783e-005	0	
-4.73159e-005	-1.20362e-005	0	
-4.72107e-005	-1.24736e-005	0	
-4.68344e-005	-1.29979e-005	0	
-4.62081e-005	-1.36143e-005	0	
-4.5377e-005	-1.43354e-005	0	
-4.43815e-005	-1.51541e-005	0	
-4.32267e-005	-1.60661e-005	0	
-4.19387e-005	-1.707e-005	0	
-4.04998e-005	-1.81747e-005	0	
-3.89849e-005	-1.93858e-005	0	
-3.74384e-005	-2.06616e-005	0	
-3.58196e-005	-2.199e-005	0	
-3.4134e-005	-2.33726e-005	0	
-3.23893e-005	-2.48036e-005	0	
-3.05881e-005	-2.62903e-005	0	
-2.87373e-005	-2.78499e-005	0	
-2.68543e-005	-2.94851e-005	0	
-2.49217e-005	-3.11934e-005	0	
-2.29709e-005	-3.29815e-005	0	
-2.10201e-005	-3.48395e-005	0	
-1.90485e-005	-3.67822e-005	0	
-1.70992e-005	-3.88137e-005	0	
-1.51821e-005	-4.09187e-005	0	
-1.33516e-005	-4.31011e-005	0	
-1.16548e-005	-4.53332e-005	0	
-1.0005e-005	-4.75997e-005	0	
-8.42965e-006	-4.99139e-005	0	
-7.00784e-006	-5.2262e-005	0	
-5.69045e-006	-5.46217e-005	0	
-4.44909e-006	-5.69802e-005	0	
-3.3229e-006	-5.93283e-005	0	
-2.3276e-006	-6.16721e-005	0	
-1.45847e-006	-6.39748e-005	0	
-7.19772e-007	-6.62228e-005	0	
-1.17932e-007	-6.84295e-005	0	
3.69219e-007	-7.05571e-005	0	
7.62141e-007	-7.26039e-005	0	
1.05923e-006	-7.45991e-005	0	
1.25561e-006	-7.65112e-005	0	
1.40013e-006	-7.83235e-005	0	
1.51021e-006	-8.00784e-005	0	
1.53883e-006	-8.17609e-005	0	
1.47738e-006	-8.33455e-005	0	
1.33791e-006	-8.48283e-005	0	
1.16978e-006	-8.61848e-005	0	
9.86608e-007	-8.74134e-005	0	
8.06603e-007	-8.85334e-005	0	
6.67102e-007	-8.95577e-005	0	
5.31309e-007	-9.04986e-005	0	
3.76629e-007	-9.13662e-005	0	
2.00344e-007	-9.21384e-005	0	
4.99467e-008	-9.28031e-005	0	
-4.99538e-008	-9.33882e-005	0	
-1.07421e-007	-9.38965e-005	0	
-1.00565e-007	-9.43339e-005	0	
-3.64964e-008	-9.47124e-005	0	
7.51941e-008	-9.5036e-005	0	
2.03936e-007	-9.53085e-005	0	
3.83301e-007	-9.55243e-005	0	
6.22882e-007	-9.56757e-005	0	
9.15181e-007	-9.57727e-005	0	
1.26975e-006	-9.58416e-005	0	
1.67388e-006	-9.58765e-005	0	
2.1267e-006	-9.58609e-005	0	
2.67276e-006	-9.58199e-005	0	
3.31595e-006	-9.57847e-005	0	
4.01067e-006	-9.57654e-005	0	
4.72196e-006	-9.57566e-005	0	
5.46823e-006	-9.57237e-005	0	
6.26701e-006	-9.56639e-005	0	
7.10613e-006	-9.5608e-005	0	
7.97135e-006	-9.5563e-005	0	
8.85398e-006	-9.55052e-005	0	
9.76969e-006	-9.54377e-005	0	
1.07167e-005	-9.5396e-005	0	
1.16583e-005	-9.53733e-005	0	
1.2591e-005	-9.53352e-005	0	
1.35557e-005	-9.52933e-005	0	
1.4565e-005	-9.52747e-005	0	
1.56004e-005	-9.52615e-005	0	
1.66418e-005	-9.52517e-005	0	
1.76673e-005	-9.52635e-005	0	
1.86622e-005	-9.52792e-005	0	
1.96702e-005	-9.52676e-005	0	
2.07155e-005	-9.52475e-005	0	
2.17818e-005	-9.52475e-005	0	
-4.5459e-017	6.12365e-017	0	
-6.17436e-006	3.13733e-008	0	
-1.19902e-005	-1.2715e-006	0	
-1.7511e-005	-2.5338e-006	0	
-2.28417e-005	-3.80053e-006	0	
-2.64989e-005	-3.86494e-006	0	
-3.11992e-005	-5.22123e-006	0	
-3.45423e-005	-6.22936e-006	0	
-3.76555e-005	-7.10016e-006	0	
-4.01838e-005	-7.86708e-006	0	
-4.22866e-005	-8.5993e-006	0	
-4.39985e-005	-9.26605e-006	0	
-4.53306e-005	-9.91774e-006	0	
-4.62816e-005	-1.05629e-005	0	
-4.6868e-005	-1.12231e-005	0	
-4.70776e-005	-1.19123e-005	0	
-4.69518e-005	-1.26344e-005	0	
-4.65432e-005	-1.34046e-005	0	
-4.58795e-005	-1.42372e-005	0	
-4.50093e-005	-1.51439e-005	0	
-4.39695e-005	-1.61244e-005	0	
-4.27792e-005	-1.71892e-005	0	
-4.14484e-005	-1.83356e-005	0	
-3.99817e-005	-1.95576e-005	0	
-3.84417e-005	-2.08344e-005	0	
-3.68643e-005	-2.21735e-005	0	
-3.52243e-005	-2.35643e-005	0	
-3.35161e-005	-2.50032e-005	0	
-3.17531e-005	-2.65006e-005	0	
-2.99285e-005	-2.8046e-005	0	
-2.80531e-005	-2.9644e-005	0	
-2.61325e-005	-3.13089e-005	0	
-2.41706e-005	-3.30476e-005	0	
-2.21968e-005	-3.48452e-005	0	
-2.02085e-005	-3.67076e-005	0	
-1.82012e-005	-3.86454e-005	0	
-1.62194e-005	-4.06465e-005	0	
-1.42768e-005	-4.27101e-005	0	
-1.24301e-005	-4.48178e-005	0	
-1.07022e-005	-4.69714e-005	0	
-9.03458e-006	-4.91677e-005	0	
-7.45296e-006	-5.13941e-005	0	
-6.01291e-006	-5.36449e-005	0	
-4.69246e-006	-5.59119e-005	0	
-3.45581e-006	-5.81633e-005	0	
-2.33628e-006	-6.04137e-005	0	
-1.35623e-006	-6.26394e-005	0	
-5.09329e-007	-6.48233e-005	0	
2.11024e-007	-6.69589e-005	0	
7.85787e-007	-6.90434e-005	0	
1.24189e-006	-7.10697e-005	0	
1.60901e-006	-7.30353e-005	0	
1.87724e-006	-7.49428e-005	0	
2.04529e-006	-7.67786e-005	0	
2.1614e-006	-7.85489e-005	0	
2.23177e-006	-8.02481e-005	0	
2.22716e-006	-8.18541e-005	0	
2.12265e-006	-8.33639e-005	0	
1.94062e-006	-8.47852e-005	0	
1.72412e-006	-8.6113e-005	0	
1.49707e-006	-8.73364e-005	0	
1.27497e-006	-8.8461e-005	0	
1.0871e-006	-8.94941e-005	0	
9.16059e-007	-9.04362e-005	0	
7.23589e-007	-9.12963e-005	0	
5.13642e-007	-9.20707e-005	0	
3.31161e-007	-9.27668e-005	0	
1.98444e-007	-9.33867e-005	0	
1.1224e-007	-9.39371e-005	0	
8.34266e-008	-9.4424e-005	0	
1.24563e-007	-9.48497e-005	0	
2.09748e-007	-9.52127e-005	0	
3.18063e-007	-9.55151e-005	0	
4.74106e-007	-9.57733e-005	0	
6.9046e-007	-9.59812e-005	0	
9.66867e-007	-9.61397e-005	0	
1.30363e-006	-9.62602e-005	0	
1.6931e-006	-9.6348e-005	0	
2.14339e-006	-9.64041e-005	0	
2.68454e-006	-9.6441e-005	0	
3.32138e-006	-9.64686e-005	0	
4.00888e-006	-9.64912e-005	0	
4.7154e-006	-9.65049e-005	0	
5.45902e-006	-9.65046e-005	0	
6.2438e-006	-9.64914e-005	0	
7.08446e-006	-9.64704e-005	0	
7.95144e-006	-9.64418e-005	0	
8.83252e-006	-9.64038e-005	0	
9.75041e-006	-9.63714e-005	0	
1.07011e-005	-9.63475e-005	0	
1.16458e-005	-9.63251e-005	0	
1.25802e-005	-9.63059e-005	0	
1.35528e-005	-9.62926e-005	0	
1.45649e-005	-9.62874e-005	0	
1.55989e-005	-9.62836e-005	0	
1.66433e-005	-9.62831e-005	0	
1.76645e-005	-9.62888e-005	0	
1.86683e-005	-9.62897e-005	0	
1.96718e-005	-9.62989e-005	0	
2.07146e-005	-9.63096e-005	0	
2.17805e-005	-9.63136e-005	0	
-3.82977e-017	6.14065e-017	0	
-6.74976e-006	3.09916e-006	0	
-1.16066e-005	2.91681e-006	0	
-1.78452e-005	9.12905e-007	0	
-2.2462e-005	-5.43669e-007	0	
-2.68112e-005	-1.76618e-006	0	
-3.10539e-005	-3.0656e-006	0	
-3.36382e-005	-3.13413e-006	0	
-3.73612e-005	-4.61704e-006	0	
-3.97405e-005	-5.76999e-006	0	
-4.1954e-005	-6.82805e-006	0	
-4.36597e-005	-7.81955e-006	0	
-4.49849e-005	-8.80809e-006	0	
-4.5936e-005	-9.76573e-006	0	
-4.65114e-005	-1.07275e-005	0	
-4.67251e-005	-1.16865e-005	0	
-4.65925e-005	-1.26588e-005	0	
-4.61657e-005	-1.36539e-005	0	
-4.54715e-005	-1.46859e-005	0	
-4.45603e-005	-1.57761e-005	0	
-4.34793e-005	-1.69284e-005	0	
-4.22545e-005	-1.81426e-005	0	
-4.08877e-005	-1.94214e-005	0	
-3.94103e-005	-2.07453e-005	0	
-3.78646e-005	-2.21149e-005	0	
-3.62646e-005	-2.35248e-005	0	
-3.46001e-005	-2.49801e-005	0	
-3.28747e-005	-2.6482e-005	0	
-3.10884e-005	-2.80348e-005	0	
-2.92521e-005	-2.96388e-005	0	
-2.73541e-005	-3.12849e-005	0	
-2.54046e-005	-3.29857e-005	0	
-2.34193e-005	-3.47418e-005	0	
-2.14167e-005	-3.65539e-005	0	
-1.93956e-005	-3.84264e-005	0	
-1.7362e-005	-4.03546e-005	0	
-1.53491e-005	-4.23376e-005	0	
-1.33956e-005	-4.43601e-005	0	
-1.15338e-005	-4.64235e-005	0	
-9.76881e-006	-4.85275e-005	0	
-8.08674e-006	-5.06722e-005	0	
-6.49893e-006	-5.28341e-005	0	
-5.04559e-006	-5.50173e-005	0	
-3.71719e-006	-5.72011e-005	0	
-2.49139e-006	-5.9376e-005	0	
-1.3856e-006	-6.15276e-005	0	
-4.21197e-007	-6.3664e-005	0	
4.03054e-007	-6.57575e-005	0	
1.09787e-006	-6.78014e-005	0	
1.64885e-006	-6.97946e-005	0	
2.08826e-006	-7.17376e-005	0	
2.42726e-006	-7.36317e-005	0	
2.67086e-006	-7.54688e-005	0	
2.8201e-006	-7.72415e-005	0	
2.90299e-006	-7.89479e-005	0	
2.93602e-006	-8.05885e-005	0	
2.8853e-006	-8.21415e-005	0	
2.74328e-006	-8.35968e-005	0	
2.5247e-006	-8.4972e-005	0	
2.27494e-006	-8.62592e-005	0	
2.00992e-006	-8.74584e-005	0	
1.74934e-006	-8.85789e-005	0	
1.51744e-006	-8.96109e-005	0	
1.2972e-006	-9.05509e-005	0	
1.0672e-006	-9.13958e-005	0	
8.30163e-007	-9.21709e-005	0	
6.28453e-007	-9.28805e-005	0	
4.6838e-007	-9.35265e-005	0	
3.52932e-007	-9.41091e-005	0	
2.89805e-007	-9.46357e-005	0	
2.97329e-007	-9.51008e-005	0	
3.53798e-007	-9.54866e-005	0	
4.44059e-007	-9.58201e-005	0	
5.86946e-007	-9.6116e-005	0	
7.8375e-007	-9.63753e-005	0	
1.04022e-006	-9.65841e-005	0	
1.37049e-006	-9.67554e-005	0	
1.75007e-006	-9.69009e-005	0	
2.2017e-006	-9.70216e-005	0	
2.7346e-006	-9.71152e-005	0	
3.35204e-006	-9.71885e-005	0	
4.02722e-006	-9.72462e-005	0	
4.7283e-006	-9.72927e-005	0	
5.45909e-006	-9.73168e-005	0	
6.24071e-006	-9.73278e-005	0	
7.07025e-006	-9.73369e-005	0	
7.93203e-006	-9.7325e-005	0	
8.82224e-006	-9.7314e-005	0	
9.74215e-006	-9.7308e-005	0	
1.06907e-005	-9.73021e-005	0	
1.16359e-005	-9.72938e-005	0	
1.25785e-005	-9.72881e-005	0	
1.3554e-005	-9.729e-005	0	
1.4567e-005	-9.72956e-005	0	
1.56028e-005	-9.73054e-005	0	
1.66446e-005	-9.73174e-005	0	
1.76627e-005	-9.73237e-005	0	
1.86736e-005	-9.7336e-005	0	
1.96879e-005	-9.73428e-005	0	
2.07193e-005	-9.73582e-005	0	
2.17761e-005	-9.73633e-005	0	
-3.23719e-017	2.45288e-017	0	
-6.1559e-006	9.37196e-007	0	
-1.15759e-005	1.64556e-006	0	
-1.83458e-005	2.71162e-006	0	
-2.20565e-005	2.53541e-006	0	
-2.71419e-005	5.58753e-007	0	
-3.06738e-005	-8.91094e-007	0	
-3.39578e-005	-2.12193e-006	0	
-3.72014e-005	-3.44829e-006	0	
-3.87978e-005	-3.5211e-006	0	
-4.16058e-005	-5.13369e-006	0	
-4.31474e-005	-6.47815e-006	0	
-4.45578e-005	-7.76218e-006	0	
-4.54808e-005	-8.98995e-006	0	
-4.60671e-005	-1.02212e-005	0	
-4.62818e-005	-1.14244e-005	0	
-4.61546e-005	-1.2616e-005	0	
-4.57155e-005	-1.38093e-005	0	
-4.49906e-005	-1.50271e-005	0	
-4.40373e-005	-1.62885e-005	0	
-4.29167e-005	-1.7601e-005	0	
-4.16544e-005	-1.89598e-005	0	
-4.02697e-005	-2.036e-005	0	
-3.87822e-005	-2.1791e-005	0	
-3.72396e-005	-2.32479e-005	0	
-3.56314e-005	-2.47395e-005	0	
-3.39511e-005	-2.6267e-005	0	
-3.22023e-005	-2.78287e-005	0	
-3.04047e-005	-2.94334e-005	0	
-2.85509e-005	-3.10841e-005	0	
-2.66295e-005	-3.27771e-005	0	
-2.46633e-005	-3.45195e-005	0	
-2.26576e-005	-3.63107e-005	0	
-2.06249e-005	-3.81461e-005	0	
-1.85825e-005	-4.00227e-005	0	
-1.65264e-005	-4.19467e-005	0	
-1.44929e-005	-4.39158e-005	0	
-1.25222e-005	-4.59192e-005	0	
-1.06439e-005	-4.79499e-005	0	
-8.85487e-006	-5.00157e-005	0	
-7.14651e-006	-5.21082e-005	0	
-5.55351e-006	-5.42246e-005	0	
-4.0862e-006	-5.63549e-005	0	
-2.76159e-006	-5.84882e-005	0	
-1.5506e-006	-6.05976e-005	0	
-4.5418e-007	-6.2694e-005	0	
4.92946e-007	-6.4757e-005	0	
1.29146e-006	-6.67774e-005	0	
1.95252e-006	-6.87464e-005	0	
2.49257e-006	-7.06782e-005	0	
2.90845e-006	-7.25602e-005	0	
3.22746e-006	-7.43864e-005	0	
3.44824e-006	-7.61595e-005	0	
3.57518e-006	-7.78754e-005	0	
3.62692e-006	-7.95261e-005	0	
3.61703e-006	-8.11066e-005	0	
3.53032e-006	-8.26025e-005	0	
3.34214e-006	-8.40174e-005	0	
3.09543e-006	-8.53511e-005	0	
2.81925e-006	-8.6608e-005	0	
2.52268e-006	-8.77895e-005	0	
2.21923e-006	-8.88886e-005	0	
1.94404e-006	-8.9908e-005	0	
1.67368e-006	-9.0824e-005	0	
1.40048e-006	-9.16556e-005	0	
1.14865e-006	-9.24211e-005	0	
9.25116e-007	-9.31355e-005	0	
7.50338e-007	-9.38013e-005	0	
6.0579e-007	-9.44086e-005	0	
5.13266e-007	-9.49599e-005	0	
4.81597e-007	-9.54497e-005	0	
5.06273e-007	-9.58752e-005	0	
5.81207e-007	-9.62385e-005	0	
7.13747e-007	-9.65672e-005	0	
8.96483e-007	-9.68556e-005	0	
1.14127e-006	-9.71133e-005	0	
1.45802e-006	-9.73325e-005	0	
1.84257e-006	-9.75217e-005	0	
2.27916e-006	-9.76889e-005	0	
2.8017e-006	-9.78296e-005	0	
3.40631e-006	-9.79434e-005	0	
4.06549e-006	-9.8026e-005	0	
4.7524e-006	-9.80902e-005	0	
5.47658e-006	-9.81418e-005	0	
6.24809e-006	-9.81833e-005	0	
7.06247e-006	-9.82043e-005	0	
7.92213e-006	-9.82204e-005	0	
8.82027e-006	-9.82307e-005	0	
9.7421e-006	-9.82398e-005	0	
1.06802e-005	-9.8242e-005	0	
1.16355e-005	-9.82471e-005	0	
1.25782e-005	-9.82623e-005	0	
1.3555e-005	-9.82804e-005	0	
1.45707e-005	-9.83013e-005	0	
1.56101e-005	-9.8326e-005	0	
1.66494e-005	-9.83372e-005	0	
1.76721e-005	-9.83535e-005	0	
1.8685e-005	-9.83669e-005	0	
1.96998e-005	-9.83894e-005	0	
2.07321e-005	-9.84036e-005	0	
2.17836e-005	-9.84113e-005	0	
-4.17751e-017	1.02554e-017	0	
-6.06414e-006	5.35563e-007	0	
-1.16077e-005	9.47081e-007	0	
-1.70571e-005	1.197e-006	0	
-2.20066e-005	1.3847e-006	0	
-2.76357e-005	1.29231e-006	0	
-3.02693e-005	1.12019e-006	0	
-3.42885e-005	-8.29565e-007	0	
-3.68203e-005	-2.27038e-006	0	
-3.91247e-005	-3.51027e-006	0	
-4.14546e-005	-4.86353e-006	0	
-4.21487e-005	-4.94062e-006	0	
-4.41521e-005	-6.80407e-006	0	
-4.48949e-005	-8.30483e-006	0	
-4.557e-005	-9.75167e-006	0	
-4.57727e-005	-1.11487e-005	0	
-4.56599e-005	-1.25606e-005	0	
-4.52119e-005	-1.39388e-005	0	
-4.44564e-005	-1.53191e-005	0	
-4.34544e-005	-1.67336e-005	0	
-4.2285e-005	-1.81911e-005	0	
-4.0995e-005	-1.96813e-005	0	
-3.95972e-005	-2.11966e-005	0	
-3.81099e-005	-2.27294e-005	0	
-3.65613e-005	-2.42759e-005	0	
-3.49517e-005	-2.58491e-005	0	
-3.32593e-005	-2.74508e-005	0	
-3.15103e-005	-2.9079e-005	0	
-2.96994e-005	-3.07307e-005	0	
-2.78355e-005	-3.24235e-005	0	
-2.58919e-005	-3.41538e-005	0	
-2.39008e-005	-3.59247e-005	0	
-2.18821e-005	-3.77503e-005	0	
-1.98306e-005	-3.96058e-005	0	
-1.77712e-005	-4.14954e-005	0	
-1.56955e-005	-4.34275e-005	0	
-1.36355e-005	-4.53932e-005	0	
-1.16427e-005	-4.73927e-005	0	
-9.75513e-006	-4.94144e-005	0	
-7.94202e-006	-5.14581e-005	0	
-6.21601e-006	-5.35262e-005	0	
-4.60507e-006	-5.56031e-005	0	
-3.13396e-006	-5.76887e-005	0	
-1.80338e-006	-5.97776e-005	0	
-6.05492e-007	-6.18615e-005	0	
4.70761e-007	-6.3911e-005	0	
1.40164e-006	-6.59232e-005	0	
2.16935e-006	-6.78894e-005	0	
2.80702e-006	-6.98164e-005	0	
3.32474e-006	-7.16908e-005	0	
3.71959e-006	-7.35217e-005	0	
4.00862e-006	-7.52989e-005	0	
4.20541e-006	-7.70172e-005	0	
4.30514e-006	-7.86722e-005	0	
4.33275e-006	-8.02686e-005	0	
4.28795e-006	-8.18027e-005	0	
4.15465e-006	-8.32574e-005	0	
3.93447e-006	-8.46257e-005	0	
3.65595e-006	-8.59245e-005	0	
3.35821e-006	-8.71513e-005	0	
3.02151e-006	-8.82976e-005	0	
2.6758e-006	-8.93707e-005	0	
2.3446e-006	-9.03535e-005	0	
2.0292e-006	-9.125e-005	0	
1.72851e-006	-9.2068e-005	0	
1.45743e-006	-9.28264e-005	0	
1.22402e-006	-9.35454e-005	0	
1.02711e-006	-9.42102e-005	0	
8.62855e-007	-9.48283e-005	0	
7.45396e-007	-9.53959e-005	0	
6.81914e-007	-9.59065e-005	0	
6.7442e-007	-9.63507e-005	0	
7.34495e-007	-9.67497e-005	0	
8.53241e-007	-9.71098e-005	0	
1.02617e-006	-9.74257e-005	0	
1.25556e-006	-9.77071e-005	0	
1.56335e-006	-9.79605e-005	0	
1.94081e-006	-9.81838e-005	0	
2.37051e-006	-9.83843e-005	0	
2.88535e-006	-9.85622e-005	0	
3.46191e-006	-9.86966e-005	0	
4.10685e-006	-9.881e-005	0	
4.78076e-006	-9.89008e-005	0	
5.49804e-006	-9.89742e-005	0	
6.2609e-006	-9.90281e-005	0	
7.05962e-006	-9.90758e-005	0	
7.92255e-006	-9.9112e-005	0	
8.81767e-006	-9.91419e-005	0	
9.73516e-006	-9.91632e-005	0	
1.06746e-005	-9.91811e-005	0	
1.16293e-005	-9.91975e-005	0	
1.25871e-005	-9.92196e-005	0	
1.35669e-005	-9.92522e-005	0	
1.45804e-005	-9.92872e-005	0	
1.56262e-005	-9.93142e-005	0	
1.6666e-005	-9.93377e-005	0	
1.76908e-005	-9.93538e-005	0	
1.87124e-005	-9.93853e-005	0	
1.97271e-005	-9.94172e-005	0	
2.07477e-005	-9.94478e-005	0	
2.17745e-005	-9.94551e-005	0	
-3.94629e-017	7.87306e-018	0	
-5.94909e-006	2.60674e-007	0	
-1.14478e-005	4.43512e-007	0	
-1.65737e-005	4.7094e-007	0	
-2.13782e-005	3.30331e-007	0	
-2.60046e-005	3.02541e-008	0	
-3.06783e-005	-1.02832e-007	0	
-3.47751e-005	-1.07434e-006	0	
-3.64168e-005	-1.24217e-006	0	
-3.94554e-005	-3.16504e-006	0	
-4.10725e-005	-4.5968e-006	0	
-4.24827e-005	-5.84574e-006	0	
-4.39844e-005	-7.22589e-006	0	
-4.38614e-005	-7.30727e-006	0	
-4.51244e-005	-9.28226e-006	0	
-4.51604e-005	-1.09635e-005	0	
-4.51435e-005	-1.25569e-005	0	
-4.46799e-005	-1.40817e-005	0	
-4.38931e-005	-1.56155e-005	0	
-4.28282e-005	-1.71488e-005	0	
-4.15861e-005	-1.87407e-005	0	
-4.02681e-005	-2.03551e-005	0	
-3.88767e-005	-2.19712e-005	0	
-3.739e-005	-2.35909e-005	0	
-3.58377e-005	-2.52247e-005	0	
-3.42186e-005	-2.68796e-005	0	
-3.2538e-005	-2.8552e-005	0	
-3.0792e-005	-3.02339e-005	0	
-2.89873e-005	-3.19389e-005	0	
-2.71058e-005	-3.36658e-005	0	
-2.51454e-005	-3.54295e-005	0	
-2.31331e-005	-3.72295e-005	0	
-2.10895e-005	-3.90726e-005	0	
-1.9025e-005	-4.09577e-005	0	
-1.69421e-005	-4.28766e-005	0	
-1.4846e-005	-4.48302e-005	0	
-1.27665e-005	-4.68125e-005	0	
-1.07507e-005	-4.88116e-005	0	
-8.84537e-006	-5.08327e-005	0	
-7.01744e-006	-5.28792e-005	0	
-5.27418e-006	-5.49345e-005	0	
-3.65671e-006	-5.69958e-005	0	
-2.17151e-006	-5.90644e-005	0	
-8.38277e-007	-6.11281e-005	0	
3.57615e-007	-6.31706e-005	0	
1.40242e-006	-6.51889e-005	0	
2.30909e-006	-6.71619e-005	0	
3.05748e-006	-6.9091e-005	0	
3.67277e-006	-7.09761e-005	0	
4.15989e-006	-7.2826e-005	0	
4.52911e-006	-7.46153e-005	0	
4.7894e-006	-7.63442e-005	0	
4.9488e-006	-7.80168e-005	0	
5.02319e-006	-7.96294e-005	0	
5.02042e-006	-8.11794e-005	0	
4.94116e-006	-8.26635e-005	0	
4.76042e-006	-8.40703e-005	0	
4.50644e-006	-8.54007e-005	0	
4.20559e-006	-8.66585e-005	0	
3.86794e-006	-8.78456e-005	0	
3.49614e-006	-8.89581e-005	0	
3.10763e-006	-8.99923e-005	0	
2.72624e-006	-9.09488e-005	0	
2.36888e-006	-9.18293e-005	0	
2.04293e-006	-9.26364e-005	0	
1.75976e-006	-9.33942e-005	0	
1.51364e-006	-9.41045e-005	0	
1.29583e-006	-9.47738e-005	0	
1.11183e-006	-9.53901e-005	0	
9.68899e-007	-9.59589e-005	0	
8.82908e-007	-9.64736e-005	0	
8.52877e-007	-9.69292e-005	0	
8.96021e-007	-9.73453e-005	0	
1.00193e-006	-9.77259e-005	0	
1.15656e-006	-9.80616e-005	0	
1.37841e-006	-9.83645e-005	0	
1.67265e-006	-9.86499e-005	0	
2.04577e-006	-9.88998e-005	0	
2.47811e-006	-9.91263e-005	0	
2.96883e-006	-9.93233e-005	0	
3.52636e-006	-9.95007e-005	0	
4.14775e-006	-9.96322e-005	0	
4.80619e-006	-9.97374e-005	0	
5.52453e-006	-9.98238e-005	0	
6.27581e-006	-9.98943e-005	0	
7.06923e-006	-9.99554e-005	0	
7.9205e-006	-0.000100007	0	
8.81205e-006	-0.000100051	0	
9.72939e-006	-0.000100099	0	
1.06622e-005	-0.000100132	0	
1.16237e-005	-0.000100157	0	
1.2588e-005	-0.000100187	0	
1.35716e-005	-0.000100217	0	
1.4594e-005	-0.00010025	0	
1.56411e-005	-0.000100282	0	
1.66849e-005	-0.000100307	0	
1.77197e-005	-0.000100337	0	
1.87524e-005	-0.000100368	0	
1.97666e-005	-0.000100404	0	
2.07748e-005	-0.000100434	0	
2.17578e-005	-0.000100447	0	
-3.99012e-017	5.7728e-018	0	
-5.75883e-006	9.72243e-008	0	
-1.11191e-005	4.92911e-008	0	
-1.61313e-005	-1.26742e-007	0	
-2.08033e-005	-4.32369e-007	0	
-2.51588e-005	-9.08793e-007	0	
-2.92519e-005	-1.53294e-006	0	
-3.27745e-005	-2.40442e-006	0	
-3.58365e-005	-3.28296e-006	0	
-3.99348e-005	-4.30273e-006	0	
-4.067e-005	-4.46628e-006	0	
-4.28134e-005	-6.36224e-006	0	
-4.36012e-005	-7.78494e-006	0	
-4.42027e-005	-9.04294e-006	0	
-4.49615e-005	-1.045e-005	0	
-4.41069e-005	-1.05356e-005	0	
-4.4692e-005	-1.25575e-005	0	
-4.40839e-005	-1.43711e-005	0	
-4.33651e-005	-1.60335e-005	0	
-4.21557e-005	-1.7608e-005	0	
-4.08209e-005	-1.9304e-005	0	
-3.94967e-005	-2.1004e-005	0	
-3.81036e-005	-2.26949e-005	0	
-3.66289e-005	-2.44005e-005	0	
-3.5069e-005	-2.61107e-005	0	
-3.34616e-005	-2.78368e-005	0	
-3.17902e-005	-2.95616e-005	0	
-3.00651e-005	-3.12951e-005	0	
-2.82586e-005	-3.30425e-005	0	
-2.63681e-005	-3.48204e-005	0	
-2.43938e-005	-3.66191e-005	0	
-2.23616e-005	-3.84521e-005	0	
-2.02908e-005	-4.03168e-005	0	
-1.81979e-005	-4.22235e-005	0	
-1.60827e-005	-4.41695e-005	0	
-1.39632e-005	-4.61605e-005	0	
-1.18658e-005	-4.81732e-005	0	
-9.83822e-006	-5.01912e-005	0	
-7.89902e-006	-5.22344e-005	0	
-6.05588e-006	-5.42923e-005	0	
-4.30903e-006	-5.63547e-005	0	
-2.67735e-006	-5.84165e-005	0	
-1.19243e-006	-6.04789e-005	0	
1.39555e-007	-6.25236e-005	0	
1.32611e-006	-6.45419e-005	0	
2.34722e-006	-6.65238e-005	0	
3.22603e-006	-6.84706e-005	0	
3.96092e-006	-7.03744e-005	0	
4.55287e-006	-7.22448e-005	0	
5.00697e-006	-7.40674e-005	0	
5.34145e-006	-7.58309e-005	0	
5.57061e-006	-7.75296e-005	0	
5.69647e-006	-7.91617e-005	0	
5.72813e-006	-8.0727e-005	0	