# vtk DataFile Version 4.1
vtk output
ASCII
DATASET UNSTRUCTURED_GRID

POINTS	7800	float
0	0	0	
0	0.01	0	
0	0.02	0	
0	0.03	0	
0	0.04	0	
0	0.05	0	
0	0.06	0	
0	0.07	0	
0	0.08	0	
0	0.09	0	
0	0.1	0	
0	0.11	0	
0	0.12	0	
0	0.13	0	
0	0.14	0	
0	0.15	0	
0	0.16	0	
0	0.17	0	
0	0.18	0	
0	0.19	0	
0	0.2	0	
0	0.21	0	
0	0.22	0	
0	0.23	0	
0	0.24	0	
0	0.25	0	
0	0.26	0	
0	0.27	0	
0	0.28	0	
0	0.29	0	
0	0.3	0	
0	0.31	0	
0	0.32	0	
0	0.33	0	
0	0.34	0	
0	0.35	0	
0	0.36	0	
0	0.37	0	
0	0.38	0	
0	0.39	0	
0	0.4	0	
0	0.41	0	
0	0.42	0	
0	0.43	0	
0	0.44	0	
0	0.45	0	
0	0.46	0	
0	0.47	0	
0	0.48	0	
0	0.49	0	
0	0.5	0	
0	0.51	0	
0	0.52	0	
0	0.53	0	
0	0.54	0	
0	0.55	0	
0	0.56	0	
0	0.57	0	
0	0.58	0	
0	0.59	0	
0	0.6	0	
0	0.61	0	
0	0.62	0	
0	0.63	0	
0	0.64	0	
0	0.65	0	
0	0.66	0	
0	0.67	0	
0	0.68	0	
0	0.69	0	
0	0.7	0	
0	0.71	0	
0	0.72	0	
0	0.73	0	
0	0.74	0	
0	0.75	0	
0	0.76	0	
0	0.77	0	
0	0.78	0	
0	0.79	0	
0	0.8	0	
0	0.81	0	
0	0.82	0	
0	0.83	0	
0	0.84	0	
0	0.85	0	
0	0.86	0	
0	0.87	0	
0	0.88	0	
0	0.89	0	
0	0.9	0	
0	0.91	0	
0	0.92	0	
0	0.93	0	
0	0.94	0	
0	0.95	0	
0	0.96	0	
0	0.97	0	
0	0.98	0	
0	0.99	0	
0	1	0	
0.01	0	0	
0.01	0.01	0	
0.01	0.02	0	
0.01	0.03	0	
0.01	0.04	0	
0.01	0.05	0	
0.01	0.06	0	
0.01	0.07	0	
0.01	0.08	0	
0.01	0.09	0	
0.01	0.1	0	
0.01	0.11	0	
0.01	0.12	0	
0.01	0.13	0	
0.01	0.14	0	
0.01	0.15	0	
0.01	0.16	0	
0.01	0.17	0	
0.01	0.18	0	
0.01	0.19	0	
0.01	0.2	0	
0.01	0.21	0	
0.01	0.22	0	
0.01	0.23	0	
0.01	0.24	0	
0.01	0.25	0	
0.01	0.26	0	
0.01	0.27	0	
0.01	0.28	0	
0.01	0.29	0	
0.01	0.3	0	
0.01	0.31	0	
0.01	0.32	0	
0.01	0.33	0	
0.01	0.34	0	
0.01	0.35	0	
0.01	0.36	0	
0.01	0.37	0	
0.01	0.38	0	
0.01	0.39	0	
0.01	0.4	0	
0.01	0.41	0	
0.01	0.42	0	
0.01	0.43	0	
0.01	0.44	0	
0.01	0.45	0	
0.01	0.46	0	
0.01	0.47	0	
0.01	0.48	0	
0.01	0.49	0	
0.01	0.5	0	
0.01	0.51	0	
0.01	0.52	0	
0.01	0.53	0	
0.01	0.54	0	
0.01	0.55	0	
0.01	0.56	0	
0.01	0.57	0	
0.01	0.58	0	
0.01	0.59	0	
0.01	0.6	0	
0.01	0.61	0	
0.01	0.62	0	
0.01	0.63	0	
0.01	0.64	0	
0.01	0.65	0	
0.01	0.66	0	
0.01	0.67	0	
0.01	0.68	0	
0.01	0.69	0	
0.01	0.7	0	
0.01	0.71	0	
0.01	0.72	0	
0.01	0.73	0	
0.01	0.74	0	
0.01	0.75	0	
0.01	0.76	0	
0.01	0.77	0	
0.01	0.78	0	
0.01	0.79	0	
0.01	0.8	0	
0.01	0.81	0	
0.01	0.82	0	
0.01	0.83	0	
0.01	0.84	0	
0.01	0.85	0	
0.01	0.86	0	
0.01	0.87	0	
0.01	0.88	0	
0.01	0.89	0	
0.01	0.9	0	
0.01	0.91	0	
0.01	0.92	0	
0.01	0.93	0	
0.01	0.94	0	
0.01	0.95	0	
0.01	0.96	0	
0.01	0.97	0	
0.01	0.98	0	
0.01	0.99	0	
0.01	1	0	
0.02	0	0	
0.02	0.01	0	
0.02	0.02	0	
0.02	0.03	0	
0.02	0.04	0	
0.02	0.05	0	
0.02	0.06	0	
0.02	0.07	0	
0.02	0.08	0	
0.02	0.09	0	
0.02	0.1	0	
0.02	0.11	0	
0.02	0.12	0	
0.02	0.13	0	
0.02	0.14	0	
0.02	0.15	0	
0.02	0.16	0	
0.02	0.17	0	
0.02	0.18	0	
0.02	0.19	0	
0.02	0.2	0	
0.02	0.21	0	
0.02	0.22	0	
0.02	0.23	0	
0.02	0.24	0	
0.02	0.25	0	
0.02	0.26	0	
0.02	0.27	0	
0.02	0.28	0	
0.02	0.29	0	
0.02	0.3	0	
0.02	0.31	0	
0.02	0.32	0	
0.02	0.33	0	
0.02	0.34	0	
0.02	0.35	0	
0.02	0.36	0	
0.02	0.37	0	
0.02	0.38	0	
0.02	0.39	0	
0.02	0.4	0	
0.02	0.41	0	
0.02	0.42	0	
0.02	0.43	0	
0.02	0.44	0	
0.02	0.45	0	
0.02	0.46	0	
0.02	0.47	0	
0.02	0.48	0	
0.02	0.49	0	
0.02	0.5	0	
0.02	0.51	0	
0.02	0.52	0	
0.02	0.53	0	
0.02	0.54	0	
0.02	0.55	0	
0.02	0.56	0	
0.02	0.57	0	
0.02	0.58	0	
0.02	0.59	0	
0.02	0.6	0	
0.02	0.61	0	
0.02	0.62	0	
0.02	0.63	0	
0.02	0.64	0	
0.02	0.65	0	
0.02	0.66	0	
0.02	0.67	0	
0.02	0.68	0	
0.02	0.69	0	
0.02	0.7	0	
0.02	0.71	0	
0.02	0.72	0	
0.02	0.73	0	
0.02	0.74	0	
0.02	0.75	0	
0.02	0.76	0	
0.02	0.77	0	
0.02	0.78	0	
0.02	0.79	0	
0.02	0.8	0	
0.02	0.81	0	
0.02	0.82	0	
0.02	0.83	0	
0.02	0.84	0	
0.02	0.85	0	
0.02	0.86	0	
0.02	0.87	0	
0.02	0.88	0	
0.02	0.89	0	
0.02	0.9	0	
0.02	0.91	0	
0.02	0.92	0	
0.02	0.93	0	
0.02	0.94	0	
0.02	0.95	0	
0.02	0.96	0	
0.02	0.97	0	
0.02	0.98	0	
0.02	0.99	0	
0.02	1	0	
0.03	0	0	
0.03	0.01	0	
0.03	0.02	0	
0.03	0.03	0	
0.03	0.04	0	
0.03	0.05	0	
0.03	0.06	0	
0.03	0.07	0	
0.03	0.08	0	
0.03	0.09	0	
0.03	0.1	0	
0.03	0.11	0	
0.03	0.12	0	
0.03	0.13	0	
0.03	0.14	0	
0.03	0.15	0	
0.03	0.16	0	
0.03	0.17	0	
0.03	0.18	0	
0.03	0.19	0	
0.03	0.2	0	
0.03	0.21	0	
0.03	0.22	0	
0.03	0.23	0	
0.03	0.24	0	
0.03	0.25	0	
0.03	0.26	0	
0.03	0.27	0	
0.03	0.28	0	
0.03	0.29	0	
0.03	0.3	0	
0.03	0.31	0	
0.03	0.32	0	
0.03	0.33	0	
0.03	0.34	0	
0.03	0.35	0	
0.03	0.36	0	
0.03	0.37	0	
0.03	0.38	0	
0.03	0.39	0	
0.03	0.4	0	
0.03	0.41	0	
0.03	0.42	0	
0.03	0.43	0	
0.03	0.44	0	
0.03	0.45	0	
0.03	0.46	0	
0.03	0.47	0	
0.03	0.48	0	
0.03	0.49	0	
0.03	0.5	0	
0.03	0.51	0	
0.03	0.52	0	
0.03	0.53	0	
0.03	0.54	0	
0.03	0.55	0	
0.03	0.56	0	
0.03	0.57	0	
0.03	0.58	0	
0.03	0.59	0	
0.03	0.6	0	
0.03	0.61	0	
0.03	0.62	0	
0.03	0.63	0	
0.03	0.64	0	
0.03	0.65	0	
0.03	0.66	0	
0.03	0.67	0	
0.03	0.68	0	
0.03	0.69	0	
0.03	0.7	0	
0.03	0.71	0	
0.03	0.72	0	
0.03	0.73	0	
0.03	0.74	0	
0.03	0.75	0	
0.03	0.76	0	
0.03	0.77	0	
0.03	0.78	0	
0.03	0.79	0	
0.03	0.8	0	
0.03	0.81	0	
0.03	0.82	0	
0.03	0.83	0	
0.03	0.84	0	
0.03	0.85	0	
0.03	0.86	0	
0.03	0.87	0	
0.03	0.88	0	
0.03	0.89	0	
0.03	0.9	0	
0.03	0.91	0	
0.03	0.92	0	
0.03	0.93	0	
0.03	0.94	0	
0.03	0.95	0	
0.03	0.96	0	
0.03	0.97	0	
0.03	0.98	0	
0.03	0.99	0	
0.03	1	0	
0.04	0	0	
0.04	0.01	0	
0.04	0.02	0	
0.04	0.03	0	
0.04	0.04	0	
0.04	0.05	0	
0.04	0.06	0	
0.04	0.07	0	
0.04	0.08	0	
0.04	0.09	0	
0.04	0.1	0	
0.04	0.11	0	
0.04	0.12	0	
0.04	0.13	0	
0.04	0.14	0	
0.04	0.15	0	
0.04	0.16	0	
0.04	0.17	0	
0.04	0.18	0	
0.04	0.19	0	
0.04	0.2	0	
0.04	0.21	0	
0.04	0.22	0	
0.04	0.23	0	
0.04	0.24	0	
0.04	0.25	0	
0.04	0.26	0	
0.04	0.27	0	
0.04	0.28	0	
0.04	0.29	0	
0.04	0.3	0	
0.04	0.31	0	
0.04	0.32	0	
0.04	0.33	0	
0.04	0.34	0	
0.04	0.35	0	
0.04	0.36	0	
0.04	0.37	0	
0.04	0.38	0	
0.04	0.39	0	
0.04	0.4	0	
0.04	0.41	0	
0.04	0.42	0	
0.04	0.43	0	
0.04	0.44	0	
0.04	0.45	0	
0.04	0.46	0	
0.04	0.47	0	
0.04	0.48	0	
0.04	0.49	0	
0.04	0.5	0	
0.04	0.51	0	
0.04	0.52	0	
0.04	0.53	0	
0.04	0.54	0	
0.04	0.55	0	
0.04	0.56	0	
0.04	0.57	0	
0.04	0.58	0	
0.04	0.59	0	
0.04	0.6	0	
0.04	0.61	0	
0.04	0.62	0	
0.04	0.63	0	
0.04	0.64	0	
0.04	0.65	0	
0.04	0.66	0	
0.04	0.67	0	
0.04	0.68	0	
0.04	0.69	0	
0.04	0.7	0	
0.04	0.71	0	
0.04	0.72	0	
0.04	0.73	0	
0.04	0.74	0	
0.04	0.75	0	
0.04	0.76	0	
0.04	0.77	0	
0.04	0.78	0	
0.04	0.79	0	
0.04	0.8	0	
0.04	0.81	0	
0.04	0.82	0	
0.04	0.83	0	
0.04	0.84	0	
0.04	0.85	0	
0.04	0.86	0	
0.04	0.87	0	
0.04	0.88	0	
0.04	0.89	0	
0.04	0.9	0	
0.04	0.91	0	
0.04	0.92	0	
0.04	0.93	0	
0.04	0.94	0	
0.04	0.95	0	
0.04	0.96	0	
0.04	0.97	0	
0.04	0.98	0	
0.04	0.99	0	
0.04	1	0	
0.05	0	0	
0.05	0.01	0	
0.05	0.02	0	
0.05	0.03	0	
0.05	0.04	0	
0.05	0.05	0	
0.05	0.06	0	
0.05	0.07	0	
0.05	0.08	0	
0.05	0.09	0	
0.05	0.1	0	
0.05	0.11	0	
0.05	0.12	0	
0.05	0.13	0	
0.05	0.14	0	
0.05	0.15	0	
0.05	0.16	0	
0.05	0.17	0	
0.05	0.18	0	
0.05	0.19	0	
0.05	0.2	0	
0.05	0.21	0	
0.05	0.22	0	
0.05	0.23	0	
0.05	0.24	0	
0.05	0.25	0	
0.05	0.26	0	
0.05	0.27	0	
0.05	0.28	0	
0.05	0.29	0	
0.05	0.3	0	
0.05	0.31	0	
0.05	0.32	0	
0.05	0.33	0	
0.05	0.34	0	
0.05	0.35	0	
0.05	0.36	0	
0.05	0.37	0	
0.05	0.38	0	
0.05	0.39	0	
0.05	0.4	0	
0.05	0.41	0	
0.05	0.42	0	
0.05	0.43	0	
0.05	0.44	0	
0.05	0.45	0	
0.05	0.46	0	
0.05	0.47	0	
0.05	0.48	0	
0.05	0.49	0	
0.05	0.5	0	
0.05	0.51	0	
0.05	0.52	0	
0.05	0.53	0	
0.05	0.54	0	
0.05	0.55	0	
0.05	0.56	0	
0.05	0.57	0	
0.05	0.58	0	
0.05	0.59	0	
0.05	0.6	0	
0.05	0.61	0	
0.05	0.62	0	
0.05	0.63	0	
0.05	0.64	0	
0.05	0.65	0	
0.05	0.66	0	
0.05	0.67	0	
0.05	0.68	0	
0.05	0.69	0	
0.05	0.7	0	
0.05	0.71	0	
0.05	0.72	0	
0.05	0.73	0	
0.05	0.74	0	
0.05	0.75	0	
0.05	0.76	0	
0.05	0.77	0	
0.05	0.78	0	
0.05	0.79	0	
0.05	0.8	0	
0.05	0.81	0	
0.05	0.82	0	
0.05	0.83	0	
0.05	0.84	0	
0.05	0.85	0	
0.05	0.86	0	
0.05	0.87	0	
0.05	0.88	0	
0.05	0.89	0	
0.05	0.9	0	
0.05	0.91	0	
0.05	0.92	0	
0.05	0.93	0	
0.05	0.94	0	
0.05	0.95	0	
0.05	0.96	0	
0.05	0.97	0	
0.05	0.98	0	
0.05	0.99	0	
0.05	1	0	
0.06	0	0	
0.06	0.01	0	
0.06	0.02	0	
0.06	0.03	0	
0.06	0.04	0	
0.06	0.05	0	
0.06	0.06	0	
0.06	0.07	0	
0.06	0.08	0	
0.06	0.09	0	
0.06	0.1	0	
0.06	0.11	0	
0.06	0.12	0	
0.06	0.13	0	
0.06	0.14	0	
0.06	0.15	0	
0.06	0.16	0	
0.06	0.17	0	
0.06	0.18	0	
0.06	0.19	0	
0.06	0.2	0	
0.06	0.21	0	
0.06	0.22	0	
0.06	0.23	0	
0.06	0.24	0	
0.06	0.25	0	
0.06	0.26	0	
0.06	0.27	0	
0.06	0.28	0	
0.06	0.29	0	
0.06	0.3	0	
0.06	0.31	0	
0.06	0.32	0	
0.06	0.33	0	
0.06	0.34	0	
0.06	0.35	0	
0.06	0.36	0	
0.06	0.37	0	
0.06	0.38	0	
0.06	0.39	0	
0.06	0.4	0	
0.06	0.41	0	
0.06	0.42	0	
0.06	0.43	0	
0.06	0.44	0	
0.06	0.45	0	
0.06	0.46	0	
0.06	0.47	0	
0.06	0.48	0	
0.06	0.49	0	
0.06	0.5	0	
0.06	0.51	0	
0.06	0.52	0	
0.06	0.53	0	
0.06	0.54	0	
0.06	0.55	0	
0.06	0.56	0	
0.06	0.57	0	
0.06	0.58	0	
0.06	0.59	0	
0.06	0.6	0	
0.06	0.61	0	
0.06	0.62	0	
0.06	0.63	0	
0.06	0.64	0	
0.06	0.65	0	
0.06	0.66	0	
0.06	0.67	0	
0.06	0.68	0	
0.06	0.69	0	
0.06	0.7	0	
0.06	0.71	0	
0.06	0.72	0	
0.06	0.73	0	
0.06	0.74	0	
0.06	0.75	0	
0.06	0.76	0	
0.06	0.77	0	
0.06	0.78	0	
0.06	0.79	0	
0.06	0.8	0	
0.06	0.81	0	
0.06	0.82	0	
0.06	0.83	0	
0.06	0.84	0	
0.06	0.85	0	
0.06	0.86	0	
0.06	0.87	0	
0.06	0.88	0	
0.06	0.89	0	
0.06	0.9	0	
0.06	0.91	0	
0.06	0.92	0	
0.06	0.93	0	
0.06	0.94	0	
0.06	0.95	0	
0.06	0.96	0	
0.06	0.97	0	
0.06	0.98	0	
0.06	0.99	0	
0.06	1	0	
0.07	0	0	
0.07	0.01	0	
0.07	0.02	0	
0.07	0.03	0	
0.07	0.04	0	
0.07	0.05	0	
0.07	0.06	0	
0.07	0.07	0	
0.07	0.08	0	
0.07	0.09	0	
0.07	0.1	0	
0.07	0.11	0	
0.07	0.12	0	
0.07	0.13	0	
0.07	0.14	0	
0.07	0.15	0	
0.07	0.16	0	
0.07	0.17	0	
0.07	0.18	0	
0.07	0.19	0	
0.07	0.2	0	
0.07	0.21	0	
0.07	0.22	0	
0.07	0.23	0	
0.07	0.24	0	
0.07	0.25	0	
0.07	0.26	0	
0.07	0.27	0	
0.07	0.28	0	
0.07	0.29	0	
0.07	0.3	0	
0.07	0.31	0	
0.07	0.32	0	
0.07	0.33	0	
0.07	0.34	0	
0.07	0.35	0	
0.07	0.36	0	
0.07	0.37	0	
0.07	0.38	0	
0.07	0.39	0	
0.07	0.4	0	
0.07	0.41	0	
0.07	0.42	0	
0.07	0.43	0	
0.07	0.44	0	
0.07	0.45	0	
0.07	0.46	0	
0.07	0.47	0	
0.07	0.48	0	
0.07	0.49	0	
0.07	0.5	0	
0.07	0.51	0	
0.07	0.52	0	
0.07	0.53	0	
0.07	0.54	0	
0.07	0.55	0	
0.07	0.56	0	
0.07	0.57	0	
0.07	0.58	0	
0.07	0.59	0	
0.07	0.6	0	
0.07	0.61	0	
0.07	0.62	0	
0.07	0.63	0	
0.07	0.64	0	
0.07	0.65	0	
0.07	0.66	0	
0.07	0.67	0	
0.07	0.68	0	
0.07	0.69	0	
0.07	0.7	0	
0.07	0.71	0	
0.07	0.72	0	
0.07	0.73	0	
0.07	0.74	0	
0.07	0.75	0	
0.07	0.76	0	
0.07	0.77	0	
0.07	0.78	0	
0.07	0.79	0	
0.07	0.8	0	
0.07	0.81	0	
0.07	0.82	0	
0.07	0.83	0	
0.07	0.84	0	
0.07	0.85	0	
0.07	0.86	0	
[...]
POINT_DATA	7800
VECTORS chi0 float
-9.77704e-016	-1.56554e-015	0	
-1.82432e-010	0.00325213	0	
-3.64351e-010	0.00650115	0	
-5.45247e-010	0.00974381	0	
-7.24602e-010	0.0129766	0	
-9.01894e-010	0.0161957	0	
-1.0766e-009	0.0193965	0	
-1.24817e-009	0.0225742	0	
-1.41607e-009	0.0257227	0	
-1.57973e-009	0.0288354	0	
-1.7386e-009	0.0319043	0	
-1.89208e-009	0.0349204	0	
-2.03959e-009	0.0378736	0	
-2.18053e-009	0.0407521	0	
-2.31429e-009	0.0435429	0	
-2.44026e-009	0.0462316	0	
-2.55782e-009	0.0488026	0	
-2.66637e-009	0.0512388	0	
-2.76529e-009	0.0535222	0	
-2.85402e-009	0.0556341	0	
-2.93199e-009	0.0575553	0	
-2.99868e-009	0.0592665	0	
-3.0536e-009	0.0607488	0	
-3.09633e-009	0.0619843	0	
-3.12648e-009	0.0629565	0	
-3.14377e-009	0.0636507	0	
-3.14796e-009	0.0640546	0	
-3.1389e-009	0.0641587	0	
-3.11652e-009	0.0639564	0	
-3.08085e-009	0.0634445	0	
-3.03199e-009	0.0626229	0	
-2.97013e-009	0.0614949	0	
-2.89553e-009	0.0600669	0	
-2.80853e-009	0.058348	0	
-2.70954e-009	0.0563498	0	
-2.59905e-009	0.0540862	0	
-2.47756e-009	0.0515727	0	
-2.34566e-009	0.048826	0	
-2.20398e-009	0.0458638	0	
-2.05315e-009	0.0427044	0	
-1.89388e-009	0.0393662	0	
-1.72686e-009	0.0358677	0	
-1.55284e-009	0.0322269	0	
-1.37255e-009	0.0284617	0	
-1.18675e-009	0.0245892	0	
-9.96223e-010	0.0206261	0	
-8.01739e-010	0.0165886	0	
-6.04085e-010	0.0124923	0	
-4.04049e-010	0.00835229	0	
-2.02424e-010	0.00418334	0	
-3.30896e-015	-1.2987e-015	0	
2.02417e-010	-0.00418334	0	
4.04042e-010	-0.00835229	0	
6.04078e-010	-0.0124923	0	
8.01733e-010	-0.0165886	0	
9.96216e-010	-0.0206261	0	
1.18675e-009	-0.0245892	0	
1.37254e-009	-0.0284617	0	
1.55283e-009	-0.0322269	0	
1.72686e-009	-0.0358677	0	
1.89387e-009	-0.0393662	0	
2.05315e-009	-0.0427044	0	
2.20397e-009	-0.0458638	0	
2.34566e-009	-0.048826	0	
2.47755e-009	-0.0515727	0	
2.59904e-009	-0.0540862	0	
2.70954e-009	-0.0563498	0	
2.80853e-009	-0.058348	0	
2.89552e-009	-0.0600669	0	
2.97013e-009	-0.0614949	0	
3.03199e-009	-0.0626229	0	
3.08085e-009	-0.0634445	0	
3.11652e-009	-0.0639564	0	
3.1389e-009	-0.0641587	0	
3.14796e-009	-0.0640546	0	
3.14377e-009	-0.0636507	0	
3.12648e-009	-0.0629565	0	
3.09632e-009	-0.0619843	0	
3.0536e-009	-0.0607488	0	
2.99868e-009	-0.0592665	0	
2.93199e-009	-0.0575553	0	
2.85402e-009	-0.0556341	0	
2.76529e-009	-0.0535222	0	
2.66636e-009	-0.0512388	0	
2.55782e-009	-0.0488026	0	
2.44026e-009	-0.0462316	0	
2.31429e-009	-0.0435429	0	
2.18053e-009	-0.0407521	0	
2.03959e-009	-0.0378736	0	
1.89208e-009	-0.0349204	0	
1.73859e-009	-0.0319043	0	
1.57973e-009	-0.0288354	0	
1.41606e-009	-0.0257227	0	
1.24817e-009	-0.0225742	0	
1.07659e-009	-0.0193965	0	
9.01892e-010	-0.0161957	0	
7.246e-010	-0.0129766	0	
5.45245e-010	-0.00974381	0	
3.64349e-010	-0.00650115	0	
1.8243e-010	-0.00325213	0	
-9.77704e-016	-1.56554e-015	0	
0.000307272	-1.41271e-010	0	
0.000310809	0.00324867	0	
0.000321499	0.00649425	0	
0.000339579	0.00973353	0	
0.000365444	0.012963	0	
0.000399651	0.0161789	0	
0.000442913	0.0193768	0	
0.000496106	0.0225516	0	
0.000560257	0.0256975	0	
0.000636546	0.0288079	0	
0.000726285	0.0318748	0	
0.000830907	0.0348894	0	
0.000951936	0.0378414	0	
0.00109095	0.0407191	0	
0.00124953	0.0435097	0	
0.00142922	0.0461987	0	
0.00163142	0.0487705	0	
0.00185737	0.0512079	0	
0.00210798	0.0534931	0	
0.00238383	0.055607	0	
0.00268504	0.0575306	0	
0.0030112	0.0592443	0	
0.00336132	0.0607291	0	
0.00373381	0.0619671	0	
0.00412649	0.0629416	0	
0.00453656	0.0636377	0	
0.00496073	0.064043	0	
0.00539531	0.064148	0	
0.00583627	0.0639461	0	
0.00627945	0.063434	0	
0.00672062	0.0626118	0	
0.00715569	0.0614827	0	
0.0075808	0.0600532	0	
0.0079924	0.0583326	0	
0.00838739	0.0563327	0	
0.00876311	0.0540673	0	
0.00911737	0.0515521	0	
0.00944848	0.0488041	0	
0.00975522	0.0458409	0	
0.0100368	0.042681	0	
0.0102926	0.0393428	0	
0.0105227	0.0358447	0	
0.010727	0.0322049	0	
0.0109059	0.0284411	0	
0.0110596	0.0245706	0	
0.0111887	0.0206099	0	
0.0112935	0.0165752	0	
0.0113746	0.0124819	0	
0.0114322	0.00834524	0	
0.0114667	0.00417977	0	
0.0114781	-2.71041e-010	0	
0.0114667	-0.00417977	0	
0.0114322	-0.00834524	0	
0.0113746	-0.0124819	0	
0.0112935	-0.0165752	0	
0.0111887	-0.0206099	0	
0.0110596	-0.0245706	0	
0.0109059	-0.0284411	0	
0.010727	-0.0322049	0	
0.0105227	-0.0358447	0	
0.0102926	-0.0393428	0	
0.0100368	-0.042681	0	
0.00975523	-0.045841	0	
0.00944849	-0.0488041	0	
0.00911737	-0.0515521	0	
0.00876311	-0.0540673	0	
0.0083874	-0.0563327	0	
0.00799241	-0.0583326	0	
0.0075808	-0.0600532	0	
0.0071557	-0.0614827	0	
0.00672062	-0.0626118	0	
0.00627945	-0.063434	0	
0.00583628	-0.0639461	0	
0.00539532	-0.064148	0	
0.00496074	-0.064043	0	
0.00453656	-0.0636377	0	
0.00412649	-0.0629416	0	
0.00373382	-0.0619671	0	
0.00336132	-0.0607291	0	
0.0030112	-0.0592443	0	
0.00268505	-0.0575306	0	
0.00238384	-0.055607	0	
0.00210799	-0.0534931	0	
0.00185737	-0.0512079	0	
0.00163143	-0.0487705	0	
0.00142922	-0.0461987	0	
0.00124954	-0.0435097	0	
0.00109095	-0.0407191	0	
0.00095194	-0.0378414	0	
0.000830911	-0.0348894	0	
0.000726288	-0.0318748	0	
0.000636549	-0.0288079	0	
0.00056026	-0.0256975	0	
0.000496108	-0.0225516	0	
0.000442915	-0.0193768	0	
0.000399652	-0.0161789	0	
0.000365446	-0.012963	0	
0.00033958	-0.00973353	0	
0.000321499	-0.00649425	0	
0.000310809	-0.00324867	0	
0.000307272	-1.41271e-010	0	
0.000617483	-2.81967e-010	0	
0.000624515	0.00323829	0	
0.000645769	0.00647358	0	
0.000681717	0.00970273	0	
0.000733146	0.0129224	0	
0.000801163	0.0161287	0	
0.000887193	0.0193175	0	
0.000992979	0.0224838	0	
0.00112058	0.025622	0	
0.00127234	0.0287254	0	
0.00145091	0.0317863	0	
0.00165915	0.0347961	0	
0.00190012	0.0377444	0	
0.00217701	0.04062	0	
0.00249302	0.0434099	0	
0.00285125	0.0460997	0	
0.0032546	0.0486737	0	
0.00370554	0.0511149	0	
0.00420601	0.0534051	0	
0.00475721	0.0555252	0	
0.00535941	0.0574558	0	
0.00601185	0.059177	0	
0.00671258	0.0606696	0	
0.00745843	0.061915	0	
0.00824498	0.0628962	0	
0.00906664	0.063598	0	
0.00991676	0.0640077	0	
0.0107878	0.0641155	0	
0.0116718	0.0639147	0	
0.0125601	0.0634021	0	
0.0134443	0.0625777	0	
0.0143161	0.0614452	0	
0.0151678	0.0600113	0	
0.0159921	0.0582855	0	
0.0167829	0.0562802	0	
0.0175348	0.0540095	0	
0.0182435	0.0514896	0	
0.0189056	0.0487375	0	
0.0195188	0.0457714	0	
0.0200813	0.0426099	0	
0.0205924	0.0392715	0	
0.0210517	0.0357748	0	
0.0214596	0.032138	0	
0.0218164	0.0283787	0	
0.0221232	0.0245142	0	
0.0223806	0.0205608	0	
0.0225897	0.0165344	0	
0.0227513	0.0124505	0	
0.0228661	0.00832388	0	
0.0229348	0.00416897	0	
0.0229576	-5.4167e-010	0	
0.0229348	-0.00416897	0	
0.0228661	-0.00832388	0	
0.0227513	-0.0124505	0	
0.0225897	-0.0165344	0	
0.0223806	-0.0205608	0	
0.0221232	-0.0245142	0	
0.0218165	-0.0283788	0	
0.0214596	-0.032138	0	
0.0210517	-0.0357748	0	
0.0205924	-0.0392715	0	
0.0200813	-0.0426099	0	
0.0195188	-0.0457714	0	
0.0189056	-0.0487375	0	
0.0182435	-0.0514896	0	
0.0175348	-0.0540095	0	
0.0167829	-0.0562802	0	
0.0159921	-0.0582856	0	
0.0151678	-0.0600113	0	
0.0143162	-0.0614452	0	
0.0134443	-0.0625777	0	
0.0125601	-0.0634021	0	
0.0116718	-0.0639147	0	
0.0107879	-0.0641155	0	
0.00991677	-0.0640077	0	
0.00906665	-0.063598	0	
0.00824499	-0.0628962	0	
0.00745844	-0.061915	0	
0.00671258	-0.0606696	0	
0.00601185	-0.059177	0	
0.00535942	-0.0574558	0	
0.00475721	-0.0555252	0	
0.00420602	-0.0534051	0	
0.00370555	-0.0511149	0	
0.0032546	-0.0486737	0	
0.00285126	-0.0460997	0	
0.00249302	-0.0434099	0	
0.00217701	-0.04062	0	
0.00190012	-0.0377444	0	
0.00165915	-0.0347961	0	
0.00145091	-0.0317863	0	
0.00127235	-0.0287254	0	
0.00112058	-0.025622	0	
0.000992981	-0.0224838	0	
0.000887195	-0.0193175	0	
0.000801165	-0.0161287	0	
0.000733148	-0.0129224	0	
0.000681718	-0.00970273	0	
0.00064577	-0.00647358	0	
0.000624516	-0.00323829	0	
0.000617483	-2.81967e-010	0	
0.000933581	-4.21514e-010	0	
0.000944026	0.00322103	0	
0.000975597	0.00643919	0	
0.00102899	0.00965147	0	
0.00110539	0.0128546	0	
0.00120643	0.0160451	0	
0.00133425	0.0192187	0	
0.00149145	0.0223708	0	
0.00168109	0.0254959	0	
0.00190672	0.0285876	0	
0.0021723	0.0316385	0	
0.00248214	0.03464	0	
0.00284089	0.0375822	0	
0.00325338	0.0404539	0	
0.00372448	0.0432423	0	
0.00425897	0.0459332	0	
0.0048613	0.0485109	0	
0.00553533	0.0509582	0	
0.00628412	0.0532567	0	
0.0071096	0.0553872	0	
0.00801233	0.0573294	0	
0.00899128	0.0590633	0	
0.0100436	0.0605687	0	
0.0111645	0.0618265	0	
0.0123474	0.0628189	0	
0.0135837	0.0635301	0	
0.0148633	0.0639471	0	
0.0161749	0.0640594	0	
0.0175058	0.0638604	0	
0.0188433	0.0633467	0	
0.0201743	0.0625187	0	
0.0214863	0.0613803	0	
0.0227673	0.0599387	0	
0.0240067	0.0582042	0	
0.0251948	0.0561897	0	
0.0263239	0.05391	0	
0.0273873	0.051382	0	
0.0283802	0.0486232	0	
0.029299	0.0456523	0	
0.0301414	0.0424882	0	
0.0309063	0.0391498	0	
0.0315933	0.0356557	0	
0.032203	0.0320241	0	
0.0327363	0.0282726	0	
0.0331943	0.0244182	0	
0.0335787	0.0204772	0	
0.0338907	0.0164652	0	
0.0341319	0.0123972	0	
0.0343032	0.00828763	0	
0.0344057	0.00415064	0	
0.0344397	-8.11475e-010	0	
0.0344057	-0.00415064	0	
0.0343032	-0.00828763	0	
0.0341319	-0.0123972	0	
0.0338907	-0.0164652	0	
0.0335787	-0.0204772	0	
0.0331943	-0.0244182	0	
0.0327363	-0.0282726	0	
0.032203	-0.0320241	0	
0.0315933	-0.0356557	0	
0.0309063	-0.0391498	0	
0.0301414	-0.0424882	0	
0.029299	-0.0456523	0	
0.0283802	-0.0486232	0	
0.0273873	-0.051382	0	
0.0263239	-0.05391	0	
0.0251948	-0.0561897	0	
0.0240067	-0.0582042	0	
0.0227673	-0.0599387	0	
0.0214863	-0.0613803	0	
0.0201744	-0.0625187	0	
0.0188433	-0.0633467	0	
0.0175058	-0.0638604	0	
0.0161749	-0.0640594	0	
0.0148634	-0.0639471	0	
0.0135837	-0.0635301	0	
0.0123474	-0.0628189	0	
0.0111645	-0.0618265	0	
0.0100436	-0.0605687	0	
0.00899129	-0.0590633	0	
0.00801234	-0.0573294	0	
0.0071096	-0.0553872	0	
0.00628412	-0.0532567	0	
0.00553534	-0.0509582	0	
0.0048613	-0.0485109	0	
0.00425898	-0.0459332	0	
0.00372449	-0.0432423	0	
0.00325338	-0.0404539	0	
0.0028409	-0.0375822	0	
0.00248215	-0.03464	0	
0.0021723	-0.0316385	0	
0.00190673	-0.0285876	0	
0.0016811	-0.0254959	0	
0.00149145	-0.0223708	0	
0.00133425	-0.0192187	0	
0.00120644	-0.0160451	0	
0.00110539	-0.0128546	0	
0.001029	-0.00965147	0	
0.000975597	-0.00643919	0	
0.000944027	-0.00322103	0	
0.000933581	-4.21514e-010	0	
0.00125853	-5.59343e-010	0	
0.00127226	0.00319695	0	
0.00131379	0.00639119	0	
0.00138402	0.00957991	0	
0.00148452	0.0127601	0	
0.00161744	0.0159282	0	
0.0017856	0.0190806	0	
0.00199246	0.0222127	0	
0.00224209	0.0253193	0	
0.00253919	0.0283944	0	
0.00288907	0.0314308	0	
0.00329752	0.0344204	0	
0.0037708	0.0373537	0	
0.00431545	0.0402195	0	
0.00493812	0.0430055	0	
0.00564538	0.0456975	0	
0.00644337	0.0482799	0	
0.00733755	0.0507355	0	
0.00833225	0.0530455	0	
0.00943034	0.0551901	0	
0.0106329	0.0571487	0	
0.0119386	0.0589002	0	
0.0133439	0.0604237	0	
0.0148425	0.0616989	0	
0.0164254	0.0627071	0	
0.0180811	0.0634317	0	
0.0197957	0.0638587	0	
0.0215536	0.0639773	0	
0.0233378	0.0637805	0	
0.0251306	0.0632649	0	
0.0269142	0.0624313	0	
0.0286715	0.0612841	0	
0.0303862	0.0598313	0	
0.0320439	0.0580842	0	
0.0336318	0.0560564	0	
0.0351393	0.0537639	0	
0.0365578	0.0512243	0	
0.037881	0.0484562	0	
0.0391042	0.0454787	0	
0.0402247	0.0423113	0	
0.0412412	0.0389731	0	
0.0421536	0.035483	0	
0.0429625	0.0318593	0	
0.0436696	0.0281193	0	
0.0442766	0.0242798	0	
0.0447857	0.0203568	0	
0.0451988	0.0163655	0	
0.0455179	0.0123204	0	
0.0457447	0.0082355	0	
0.0458802	0.00412429	0	
0.0459253	-1.08005e-009	0	
0.0458802	-0.00412429	0	
0.0457447	-0.0082355	0	
0.0455179	-0.0123204	0	
0.0451988	-0.0163655	0	
0.0447857	-0.0203568	0	
0.0442766	-0.0242798	0	
0.0436696	-0.0281193	0	
0.0429625	-0.0318593	0	
0.0421536	-0.0354831	0	
0.0412412	-0.0389731	0	
0.0402247	-0.0423113	0	
0.0391042	-0.0454787	0	
0.037881	-0.0484562	0	
0.0365578	-0.0512243	0	
0.0351393	-0.0537639	0	
0.0336318	-0.0560564	0	
0.0320439	-0.0580842	0	
0.0303862	-0.0598313	0	
0.0286715	-0.0612841	0	
0.0269142	-0.0624313	0	
0.0251306	-0.0632649	0	
0.0233378	-0.0637805	0	
0.0215536	-0.0639773	0	
0.0197957	-0.0638587	0	
0.0180811	-0.0634317	0	
0.0164254	-0.0627071	0	
0.0148425	-0.0616989	0	
0.0133439	-0.0604237	0	
0.0119386	-0.0589002	0	
0.0106329	-0.0571487	0	
0.00943035	-0.0551901	0	
0.00833225	-0.0530455	0	
0.00733755	-0.0507355	0	
0.00644338	-0.0482799	0	
0.00564538	-0.0456975	0	
0.00493813	-0.0430055	0	
0.00431545	-0.0402195	0	
0.00377081	-0.0373537	0	
0.00329753	-0.0344205	0	
0.00288907	-0.0314308	0	
0.0025392	-0.0283944	0	
0.00224209	-0.0253193	0	
0.00199246	-0.0222127	0	
0.0017856	-0.0190806	0	
0.00161744	-0.0159283	0	
0.00148452	-0.0127601	0	
0.00138403	-0.00957992	0	
0.00131379	-0.0063912	0	
0.00127226	-0.00319695	0	
0.00125853	-5.59343e-010	0	
0.00159529	-6.94888e-010	0	
0.00161217	0.00316614	0	
0.00166318	0.00632978	0	
0.00174947	0.00948831	0	
0.00187293	0.0126389	0	
0.00203625	0.0157784	0	
0.0022429	0.0189033	0	
0.00249714	0.0220095	0	
0.00280406	0.025092	0	
0.00316951	0.0281454	0	
0.00360012	0.0311628	0	
0.00410321	0.0341365	0	
0.00468669	0.0370575	0	
0.00535889	0.0399151	0	
0.00612838	0.0426972	0	
0.00700366	0.04539	0	
0.00799279	0.0479778	0	
0.00910302	0.0504434	0	
0.0103403	0.0527677	0	
0.0117086	0.0549304	0	
0.0132097	0.0569099	0	
0.0148425	0.0586841	0	
0.0166027	0.0602309	0	
0.0184825	0.0615286	0	
0.0204704	0.0625574	0	
0.0225518	0.0632991	0	
0.024709	0.0637389	0	
0.0269215	0.0638653	0	
0.0291675	0.0636708	0	
0.031424	0.0631521	0	
0.033668	0.0623105	0	
0.0358775	0.0611512	0	
0.0380317	0.0596832	0	
0.0401122	0.057919	0	
0.0421028	0.0558735	0	
0.0439904	0.0535641	0	
0.0457644	0.0510095	0	
0.047417	0.0482294	0	
0.0489429	0.0452437	0	
0.050339	0.0420724	0	
0.051604	0.0387352	0	
0.0527382	0.0352511	0	
0.0537429	0.0316383	0	
0.0546203	0.0279141	0	
0.055373	0.0240949	0	
0.0560038	0.0201962	0	
0.0565154	0.0162327	0	
0.0569105	0.0122182	0	
0.057191	0.00816613	0	
0.0573587	0.00408923	0	
0.0574145	-1.34698e-009	0	
0.0573587	-0.00408923	0	
0.057191	-0.00816613	0	
0.0569105	-0.0122182	0	
0.0565154	-0.0162327	0	
0.0560038	-0.0201962	0	
0.055373	-0.0240949	0	
0.0546203	-0.0279141	0	
0.0537429	-0.0316383	0	
0.0527382	-0.0352511	0	
0.051604	-0.0387352	0	
0.050339	-0.0420724	0	
0.0489429	-0.0452437	0	
0.047417	-0.0482294	0	
0.0457644	-0.0510095	0	
0.0439904	-0.0535641	0	
0.0421028	-0.0558735	0	
0.0401122	-0.057919	0	
0.0380317	-0.0596832	0	
0.0358775	-0.0611512	0	
0.033668	-0.0623106	0	
0.031424	-0.0631521	0	
0.0291675	-0.0636708	0	
0.0269215	-0.0638653	0	
0.024709	-0.0637389	0	
0.0225518	-0.0632991	0	
0.0204704	-0.0625574	0	
0.0184825	-0.0615287	0	
0.0166027	-0.0602309	0	
0.0148425	-0.0586841	0	
0.0132097	-0.0569099	0	
0.0117086	-0.0549304	0	
0.0103403	-0.0527677	0	
0.00910303	-0.0504434	0	
0.0079928	-0.0479778	0	
0.00700366	-0.04539	0	
0.00612839	-0.0426972	0	
0.0053589	-0.0399151	0	
0.00468669	-0.0370575	0	
0.00410322	-0.0341365	0	
0.00360013	-0.0311628	0	
0.00316951	-0.0281454	0	
0.00280406	-0.025092	0	
0.00249714	-0.0220095	0	
0.0022429	-0.0189034	0	
0.00203625	-0.0157784	0	
0.00187293	-0.0126389	0	
0.00174947	-0.00948831	0	
0.00166318	-0.00632978	0	
0.00161217	-0.00316614	0	
0.00159529	-6.94888e-010	0	
0.00194684	-8.27587e-010	0	
0.00196668	0.00312876	0	
0.00202663	0.00625523	0	
0.00212804	0.00937704	0	
0.00227313	0.0124916	0	
0.00246507	0.0155962	0	
0.00270796	0.0186874	0	
0.00300685	0.0217616	0	
0.00336778	0.0248143	0	
0.00379776	0.0278404	0	
0.00430474	0.0308338	0	
0.00489755	0.0337872	0	
0.00558583	0.0366921	0	
0.0063798	0.0395386	0	
0.00729008	0.0423148	0	
0.00832729	0.0450073	0	
0.0095017	0.0476008	0	
0.0108226	0.0500778	0	
0.0122979	0.0524189	0	
0.0139332	0.0546031	0	
0.0157313	0.056608	0	
0.0176913	0.05841	0	
0.0198086	0.0599854	0	
0.0220739	0.061311	0	
0.0244733	0.062365	0	
0.0269888	0.0631278	0	
0.0295981	0.063583	0	
0.032276	0.0637184	0	
0.0349948	0.0635259	0	
0.0377258	0.0630026	0	
0.0404404	0.06215	0	
0.0431109	0.0609745	0	
0.0457119	0.0594865	0	
0.0482207	0.0577002	0	
0.0506177	0.0556322	0	
0.0528872	0.0533014	0	
0.0550167	0.0507282	0	
0.0569974	0.0479333	0	
0.0588234	0.044938	0	
0.0604916	0.0417628	0	
0.062001	0.0384278	0	
0.0633526	0.0349523	0	
0.0645485	0.0313544	0	
0.0655917	0.0276511	0	
0.0664858	0.0238583	0	
0.0672345	0.0199911	0	
0.0678414	0.0160632	0	
0.0683097	0.012088	0	
0.0686422	0.0080778	0	
0.0688409	0.00404461	0	
0.0689069	-1.61186e-009	0	
0.0688409	-0.00404461	0	
0.0686422	-0.0080778	0	
0.0683097	-0.012088	0	
0.0678414	-0.0160632	0	
0.0672345	-0.0199911	0	
0.0664858	-0.0238583	0	
0.0655917	-0.0276511	0	
0.0645485	-0.0313544	0	
0.0633526	-0.0349523	0	
0.062001	-0.0384278	0	
0.0604916	-0.0417628	0	
0.0588234	-0.044938	0	
0.0569974	-0.0479333	0	
0.0550167	-0.0507282	0	
0.0528872	-0.0533014	0	
0.0506177	-0.0556322	0	
0.0482207	-0.0577002	0	
0.045712	-0.0594865	0	
0.043111	-0.0609745	0	
0.0404404	-0.06215	0	
0.0377258	-0.0630026	0	
0.0349948	-0.063526	0	
0.032276	-0.0637184	0	
0.0295981	-0.063583	0	
0.0269888	-0.0631278	0	
0.0244733	-0.062365	0	
0.0220739	-0.061311	0	
0.0198086	-0.0599854	0	
0.0176913	-0.05841	0	
0.0157313	-0.056608	0	
0.0139332	-0.0546031	0	
0.0122979	-0.0524189	0	
0.0108226	-0.0500778	0	
0.00950171	-0.0476008	0	
0.0083273	-0.0450073	0	
0.00729008	-0.0423148	0	
0.00637981	-0.0395386	0	
0.00558583	-0.0366921	0	
0.00489756	-0.0337872	0	
0.00430474	-0.0308338	0	
0.00379777	-0.0278404	0	
0.00336779	-0.0248143	0	
0.00300685	-0.0217616	0	
0.00270796	-0.0186874	0	
0.00246507	-0.0155962	0	
0.00227313	-0.0124916	0	
0.00212804	-0.00937704	0	
0.00202663	-0.00625523	0	
0.00196668	-0.00312876	0	
0.00194684	-8.27587e-010	0	
0.00231612	-9.56886e-010	0	
0.00233871	0.00308501	0	
0.00240698	0.00616795	0	
0.00252245	0.0092467	0	
0.00268767	0.0123189	0	
0.00290622	0.0153822	0	
0.0031828	0.0184335	0	
0.00352321	0.0214695	0	
0.00393439	0.0244864	0	
0.00442445	0.0274796	0	
0.00500266	0.0304436	0	
0.0056794	0.0333717	0	
0.00646604	0.0362562	0	
0.00737481	0.0390878	0	
0.00841852	0.0418553	0	
0.00961019	0.0445459	0	
0.0109625	0.0471444	0	
0.0124874	0.0496334	0	
0.014195	0.0519933	0	
0.0160929	0.0542023	0	
0.0181854	0.0562368	0	
0.0204726	0.0580716	0	
0.0229495	0.0596811	0	
0.0256056	0.0610399	0	
0.0284245	0.062124	0	
0.0313843	0.0629118	0	
0.0344581	0.0633851	0	
0.0376147	0.0635304	0	
0.0408202	0.0633393	0	
0.0440394	0.0628087	0	
0.047237	0.0619412	0	
0.0503795	0.0607446	0	
0.0534361	0.0592311	0	
0.0563796	0.0574169	0	
0.0591871	0.0553209	0	
0.0618402	0.052964	0	
0.0643249	0.0503684	0	
0.0666316	0.0475564	0	
0.0687542	0.0445503	0	
0.0706899	0.0413717	0	
0.0724384	0.038041	0	
0.0740017	0.0345776	0	
0.0753829	0.0309993	0	
0.0765863	0.027323	0	
0.0776166	0.0235639	0	
0.0784786	0.0197362	0	
0.0791767	0.0158531	0	
0.0797152	0.0119267	0	
0.0800972	0.00796847	0	
0.0803254	0.00398941	0	
0.0804013	-1.87429e-009	0	
0.0803254	-0.00398941	0	
0.0800972	-0.00796848	0	
0.0797152	-0.0119267	0	
0.0791767	-0.0158531	0	
0.0784786	-0.0197362	0	
0.0776166	-0.0235639	0	
0.0765863	-0.027323	0	
0.0753829	-0.0309993	0	
0.0740017	-0.0345776	0	
0.0724384	-0.038041	0	
0.0706899	-0.0413717	0	
0.0687542	-0.0445504	0	
0.0666316	-0.0475564	0	
0.0643249	-0.0503684	0	
0.0618402	-0.052964	0	
0.0591871	-0.0553209	0	
0.0563796	-0.0574169	0	
0.0534361	-0.0592311	0	
0.0503795	-0.0607446	0	
0.047237	-0.0619412	0	
0.0440394	-0.0628087	0	
0.0408202	-0.0633393	0	
0.0376147	-0.0635304	0	
0.0344581	-0.0633851	0	
0.0313843	-0.0629118	0	
0.0284245	-0.0621241	0	
0.0256056	-0.0610399	0	
0.0229495	-0.0596811	0	
0.0204726	-0.0580716	0	
0.0181854	-0.0562368	0	
0.0160929	-0.0542023	0	
0.014195	-0.0519933	0	
0.0124874	-0.0496334	0	
0.0109625	-0.0471444	0	
0.0096102	-0.0445459	0	
0.00841853	-0.0418553	0	
0.00737482	-0.0390878	0	
0.00646604	-0.0362562	0	
0.0056794	-0.0333717	0	
0.00500267	-0.0304436	0	
0.00442445	-0.0274796	0	
0.00393439	-0.0244864	0	
0.00352321	-0.0214695	0	
0.0031828	-0.0184335	0	
0.00290622	-0.0153822	0	
0.00268767	-0.0123189	0	
0.00252246	-0.0092467	0	
0.00240698	-0.00616795	0	
0.00233871	-0.00308501	0	
0.00231612	-9.56886e-010	0	
0.002706	-1.08224e-009	0	
0.00273112	0.0030352	0	
0.00280705	0.00606854	0	
0.00293546	0.00909811	0	
0.00311916	0.0121219	0	
0.00336215	0.0151376	0	
0.00366964	0.0181428	0	
0.00404811	0.0211345	0	
0.00450536	0.0241094	0	
0.00505055	0.0270636	0	