# vtk DataFile Version 4.1
vtk output
ASCII
DATASET UNSTRUCTURED_GRID

POINTS	2501	float
0	0	0	
0	1	0	
0	2	0	
0	3	0	
0	4	0	
0	5	0	
0	6	0	
0	7	0	
0	8	0	
0	9	0	
0	10	0	
0	11	0	
0	12	0	
0	13	0	
0	14	0	
0	15	0	
0	16	0	
0	17	0	
0	18	0	
0	19	0	
0	20	0	
0	21	0	
0	22	0	
0	23	0	
0	24	0	
0	25	0	
0	26	0	
0	27	0	
0	28	0	
0	29	0	
0	30	0	
0	31	0	
0	32	0	
0	33	0	
0	34	0	
0	35	0	
0	36	0	
0	37	0	
0	38	0	
0	39	0	
0	40	0	
1	0	0	
1	1	0	
1	2	0	
1	3	0	
1	4	0	
1	5	0	
1	6	0	
1	7	0	
1	8	0	
1	9	0	
1	10	0	
1	11	0	
1	12	0	
1	13	0	
1	14	0	
1	15	0	
1	16	0	
1	17	0	
1	18	0	
1	19	0	
1	20	0	
1	21	0	
1	22	0	
1	23	0	
1	24	0	
1	25	0	
1	26	0	
1	27	0	
1	28	0	
1	29	0	
1	30	0	
1	31	0	
1	32	0	
1	33	0	
1	34	0	
1	35	0	
1	36	0	
1	37	0	
1	38	0	
1	39	0	
1	40	0	
2	0	0	
2	1	0	
2	2	0	
2	3	0	
2	4	0	
2	5	0	
2	6	0	
2	7	0	
2	8	0	
2	9	0	
2	10	0	
2	11	0	
2	12	0	
2	13	0	
2	14	0	
2	15	0	
2	16	0	
2	17	0	
2	18	0	
2	19	0	
2	20	0	
2	21	0	
2	22	0	
2	23	0	
2	24	0	
2	25	0	
2	26	0	
2	27	0	
2	28	0	
2	29	0	
2	30	0	
2	31	0	
2	32	0	
2	33	0	
2	34	0	
2	35	0	
2	36	0	
2	37	0	
2	38	0	
2	39	0	
2	40	0	
3	0	0	
3	1	0	
3	2	0	
3	3	0	
3	4	0	
3	5	0	
3	6	0	
3	7	0	
3	8	0	
3	9	0	
3	10	0	
3	11	0	
3	12	0	
3	13	0	
3	14	0	
3	15	0	
3	16	0	
3	17	0	
3	18	0	
3	19	0	
3	20	0	
3	21	0	
3	22	0	
3	23	0	
3	24	0	
3	25	0	
3	26	0	
3	27	0	
3	28	0	
3	29	0	
3	30	0	
3	31	0	
3	32	0	
3	33	0	
3	34	0	
3	35	0	
3	36	0	
3	37	0	
3	38	0	
3	39	0	
3	40	0	
4	0	0	
4	1	0	
4	2	0	
4	3	0	
4	4	0	
4	5	0	
4	6	0	
4	7	0	
4	8	0	
4	9	0	
4	10	0	
4	11	0	
4	12	0	
4	13	0	
4	14	0	
4	15	0	
4	16	0	
4	17	0	
4	18	0	
4	19	0	
4	20	0	
4	21	0	
4	22	0	
4	23	0	
4	24	0	
4	25	0	
4	26	0	
4	27	0	
4	28	0	
4	29	0	
4	30	0	
4	31	0	
4	32	0	
4	33	0	
4	34	0	
4	35	0	
4	36	0	
4	37	0	
4	38	0	
4	39	0	
4	40	0	
5	0	0	
5	1	0	
5	2	0	
5	3	0	
5	4	0	
5	5	0	
5	6	0	
5	7	0	
5	8	0	
5	9	0	
5	10	0	
5	11	0	
5	12	0	
5	13	0	
5	14	0	
5	15	0	
5	16	0	
5	17	0	
5	18	0	
5	19	0	
5	20	0	
5	21	0	
5	22	0	
5	23	0	
5	24	0	
5	25	0	
5	26	0	
5	27	0	
5	28	0	
5	29	0	
5	30	0	
5	31	0	
5	32	0	
5	33	0	
5	34	0	
5	35	0	
5	36	0	
5	37	0	
5	38	0	
5	39	0	
5	40	0	
6	0	0	
6	1	0	
6	2	0	
6	3	0	
6	4	0	
6	5	0	
6	6	0	
6	7	0	
6	8	0	
6	9	0	
6	10	0	
6	11	0	
6	12	0	
6	13	0	
6	14	0	
6	15	0	
6	16	0	
6	17	0	
6	18	0	
6	19	0	
6	20	0	
6	21	0	
6	22	0	
6	23	0	
6	24	0	
6	25	0	
6	26	0	
6	27	0	
6	28	0	
6	29	0	
6	30	0	
6	31	0	
6	32	0	
6	33	0	
6	34	0	
6	35	0	
6	36	0	
6	37	0	
6	38	0	
6	39	0	
6	40	0	
7	0	0	
7	1	0	
7	2	0	
7	3	0	
7	4	0	
7	5	0	
7	6	0	
7	7	0	
7	8	0	
7	9	0	
7	10	0	
7	11	0	
7	12	0	
7	13	0	
7	14	0	
7	15	0	
7	16	0	
7	17	0	
7	18	0	
7	19	0	
7	20	0	
7	21	0	
7	22	0	
7	23	0	
7	24	0	
7	25	0	
7	26	0	
7	27	0	
7	28	0	
7	29	0	
7	30	0	
7	31	0	
7	32	0	
7	33	0	
7	34	0	
7	35	0	
7	36	0	
7	37	0	
7	38	0	
7	39	0	
7	40	0	
8	0	0	
8	1	0	
8	2	0	
8	3	0	
8	4	0	
8	5	0	
8	6	0	
8	7	0	
8	8	0	
8	9	0	
8	10	0	
8	11	0	
8	12	0	
8	13	0	
8	14	0	
8	15	0	
8	16	0	
8	17	0	
8	18	0	
8	19	0	
8	20	0	
8	21	0	
8	22	0	
8	23	0	
8	24	0	
8	25	0	
8	26	0	
8	27	0	
8	28	0	
8	29	0	
8	30	0	
8	31	0	
8	32	0	
8	33	0	
8	34	0	
8	35	0	
8	36	0	
8	37	0	
8	38	0	
8	39	0	
8	40	0	
9	0	0	
9	1	0	
9	2	0	
9	3	0	
9	4	0	
9	5	0	
9	6	0	
9	7	0	
9	8	0	
9	9	0	
9	10	0	
9	11	0	
9	12	0	
9	13	0	
9	14	0	
9	15	0	
9	16	0	
9	17	0	
9	18	0	
9	19	0	
9	20	0	
9	21	0	
9	22	0	
9	23	0	
9	24	0	
9	25	0	
9	26	0	
9	27	0	
9	28	0	
9	29	0	
9	30	0	
9	31	0	
9	32	0	
9	33	0	
9	34	0	
9	35	0	
9	36	0	
9	37	0	
9	38	0	
9	39	0	
9	40	0	
10	0	0	
10	1	0	
10	2	0	
10	3	0	
10	4	0	
10	5	0	
10	6	0	
10	7	0	
10	8	0	
10	9	0	
10	10	0	
10	11	0	
10	12	0	
10	13	0	
10	14	0	
10	15	0	
10	16	0	
10	17	0	
10	18	0	
10	19	0	
10	20	0	
10	21	0	
10	22	0	
10	23	0	
10	24	0	
10	25	0	
10	26	0	
10	27	0	
10	28	0	
10	29	0	
10	30	0	
10	31	0	
10	32	0	
10	33	0	
10	34	0	
10	35	0	
10	36	0	
10	37	0	
10	38	0	
10	39	0	
10	40	0	
11	0	0	
11	1	0	
11	2	0	
11	3	0	
11	4	0	
11	5	0	
11	6	0	
11	7	0	
11	8	0	
11	9	0	
11	10	0	
11	11	0	
11	12	0	
11	13	0	
11	14	0	
11	15	0	
11	16	0	
11	17	0	
11	18	0	
11	19	0	
11	20	0	
11	21	0	
11	22	0	
11	23	0	
11	24	0	
11	25	0	
11	26	0	
11	27	0	
11	28	0	
11	29	0	
11	30	0	
11	31	0	
11	32	0	
11	33	0	
11	34	0	
11	35	0	
11	36	0	
11	37	0	
11	38	0	
11	39	0	
11	40	0	
12	0	0	
12	1	0	
12	2	0	
12	3	0	
12	4	0	
12	5	0	
12	6	0	
12	7	0	
12	8	0	
12	9	0	
12	10	0	
12	11	0	
12	12	0	
12	13	0	
12	14	0	
12	15	0	
12	16	0	
12	17	0	
12	18	0	
12	19	0	
12	20	0	
12	21	0	
12	22	0	
12	23	0	
12	24	0	
12	25	0	
12	26	0	
12	27	0	
12	28	0	
12	29	0	
12	30	0	
12	31	0	
12	32	0	
12	33	0	
12	34	0	
12	35	0	
12	36	0	
12	37	0	
12	38	0	
12	39	0	
12	40	0	
13	0	0	
13	1	0	
13	2	0	
13	3	0	
13	4	0	
13	5	0	
13	6	0	
13	7	0	
13	8	0	
13	9	0	
13	10	0	
13	11	0	
13	12	0	
13	13	0	
13	14	0	
13	15	0	
13	16	0	
13	17	0	
13	18	0	
13	19	0	
13	20	0	
13	21	0	
13	22	0	
13	23	0	
13	24	0	
13	25	0	
13	26	0	
13	27	0	
13	28	0	
13	29	0	
13	30	0	
13	31	0	
13	32	0	
13	33	0	
13	34	0	
13	35	0	
13	36	0	
13	37	0	
13	38	0	
13	39	0	
13	40	0	
14	0	0	
14	1	0	
14	2	0	
14	3	0	
14	4	0	
14	5	0	
14	6	0	
14	7	0	
14	8	0	
14	9	0	
14	10	0	
14	11	0	
14	12	0	
14	13	0	
14	14	0	
14	15	0	
14	16	0	
14	17	0	
14	18	0	
14	19	0	
14	20	0	
14	21	0	
14	22	0	
14	23	0	
14	24	0	
14	25	0	
14	26	0	
14	27	0	
14	28	0	
14	29	0	
14	30	0	
14	31	0	
14	32	0	
14	33	0	
14	34	0	
14	35	0	
14	36	0	
14	37	0	
14	38	0	
14	39	0	
14	40	0	
15	0	0	
15	1	0	
15	2	0	
15	3	0	
15	4	0	
15	5	0	
15	6	0	
15	7	0	
15	8	0	
15	9	0	
15	10	0	
15	11	0	
15	12	0	
15	13	0	
15	14	0	
15	15	0	
15	16	0	
15	17	0	
15	18	0	
15	19	0	
15	20	0	
15	21	0	
15	22	0	
15	23	0	
15	24	0	
15	25	0	
15	26	0	
15	27	0	
15	28	0	
15	29	0	
15	30	0	
15	31	0	
15	32	0	
15	33	0	
15	34	0	
15	35	0	
15	36	0	
15	37	0	
15	38	0	
15	39	0	
15	40	0	
16	0	0	
16	1	0	
16	2	0	
16	3	0	
16	4	0	
16	5	0	
16	6	0	
16	7	0	
16	8	0	
16	9	0	
16	10	0	
16	11	0	
16	12	0	
16	13	0	
16	14	0	
16	15	0	
16	16	0	
16	17	0	
16	18	0	
16	19	0	
16	20	0	
16	21	0	
16	22	0	
16	23	0	
16	24	0	
16	25	0	
16	26	0	
16	27	0	
16	28	0	
16	29	0	
16	30	0	
16	31	0	
16	32	0	
16	33	0	
16	34	0	
16	35	0	
16	36	0	
16	37	0	
16	38	0	
16	39	0	
16	40	0	
17	0	0	
17	1	0	
17	2	0	
17	3	0	
17	4	0	
17	5	0	
17	6	0	
17	7	0	
17	8	0	
17	9	0	
17	10	0	
17	11	0	
17	12	0	
17	13	0	
17	14	0	
17	15	0	
17	16	0	
17	17	0	
17	18	0	
17	19	0	
17	20	0	
17	21	0	
17	22	0	
17	23	0	
17	24	0	
17	25	0	
17	26	0	
17	27	0	
17	28	0	
17	29	0	
17	30	0	
17	31	0	
17	32	0	
17	33	0	
17	34	0	
17	35	0	
17	36	0	
17	37	0	
17	38	0	
17	39	0	
17	40	0	
18	0	0	
18	1	0	
18	2	0	
18	3	0	
18	4	0	
18	5	0	
18	6	0	
18	7	0	
18	8	0	
18	9	0	
18	10	0	
18	11	0	
18	12	0	
18	13	0	
18	14	0	
18	15	0	
18	16	0	
18	17	0	
18	18	0	
18	19	0	
18	20	0	
18	21	0	
18	22	0	
18	23	0	
18	24	0	
18	25	0	
18	26	0	
18	27	0	
18	28	0	
18	29	0	
18	30	0	
18	31	0	
18	32	0	
18	33	0	
18	34	0	
18	35	0	
18	36	0	
18	37	0	
18	38	0	
18	39	0	
18	40	0	
19	0	0	
19	1	0	
19	2	0	
19	3	0	
19	4	0	
19	5	0	
19	6	0	
19	7	0	
19	8	0	
19	9	0	
19	10	0	
19	11	0	
19	12	0	
19	13	0	
19	14	0	
19	15	0	
19	16	0	
19	17	0	
19	18	0	
19	19	0	
19	20	0	
19	21	0	
19	22	0	
19	23	0	
19	24	0	
19	25	0	
19	26	0	
19	27	0	
19	28	0	
19	29	0	
19	30	0	
19	31	0	
19	32	0	
19	33	0	
19	34	0	
19	35	0	
19	36	0	
19	37	0	
19	38	0	
19	39	0	
19	40	0	
20	0	0	
20	1	0	
20	2	0	
20	3	0	
20	4	0	
20	5	0	
20	6	0	
20	7	0	
20	8	0	
20	9	0	
20	10	0	
20	11	0	
20	12	0	
20	13	0	
20	14	0	
20	15	0	
20	16	0	
20	17	0	
20	18	0	
20	19	0	
20	20	0	
20	21	0	
20	22	0	
20	23	0	
20	24	0	
20	25	0	
20	26	0	
20	27	0	
20	28	0	
20	29	0	
20	30	0	
20	31	0	
20	32	0	
20	33	0	
20	34	0	
20	35	0	
20	36	0	
20	37	0	
20	38	0	
20	39	0	
20	40	0	
21	0	0	
21	1	0	
21	2	0	
21	3	0	
21	4	0	
21	5	0	
21	6	0	
21	7	0	
21	8	0	
21	9	0	
21	10	0	
21	11	0	
21	12	0	
21	13	0	
21	14	0	
21	15	0	
21	16	0	
21	17	0	
21	18	0	
21	19	0	
21	20	0	
21	21	0	
21	22	0	
21	23	0	
21	24	0	
21	25	0	
21	26	0	
21	27	0	
21	28	0	
21	29	0	
21	30	0	
21	31	0	
21	32	0	
21	33	0	
21	34	0	
21	35	0	
21	36	0	
21	37	0	
21	38	0	
21	39	0	
21	40	0	
22	0	0	
22	1	0	
22	2	0	
22	3	0	
22	4	0	
22	5	0	
22	6	0	
22	7	0	
22	8	0	
22	9	0	
22	10	0	
22	11	0	
22	12	0	
22	13	0	
22	14	0	
22	15	0	
22	16	0	
22	17	0	
22	18	0	
22	19	0	
22	20	0	
22	21	0	
22	22	0	
22	23	0	
22	24	0	
22	25	0	
22	26	0	
22	27	0	
22	28	0	
22	29	0	
22	30	0	
22	31	0	
22	32	0	
22	33	0	
22	34	0	
22	35	0	
22	36	0	
22	37	0	
22	38	0	
22	39	0	
22	40	0	
23	0	0	
23	1	0	
23	2	0	
23	3	0	
23	4	0	
23	5	0	
23	6	0	
23	7	0	
23	8	0	
23	9	0	
23	10	0	
23	11	0	
23	12	0	
23	13	0	
23	14	0	
23	15	0	
23	16	0	
23	17	0	
23	18	0	
23	19	0	
23	20	0	
23	21	0	
23	22	0	
23	23	0	
23	24	0	
23	25	0	
23	26	0	
23	27	0	
23	28	0	
23	29	0	
23	30	0	
23	31	0	
23	32	0	
23	33	0	
23	34	0	
23	35	0	
23	36	0	
23	37	0	
23	38	0	
23	39	0	
23	40	0	
24	0	0	
24	1	0	
24	2	0	
24	3	0	
24	4	0	
24	5	0	
24	6	0	
24	7	0	
24	8	0	
24	9	0	
24	10	0	
24	11	0	
24	12	0	
24	13	0	
24	14	0	
24	15	0	
24	16	0	
24	17	0	
24	18	0	
24	19	0	
24	20	0	
24	21	0	
24	22	0	
24	23	0	
24	24	0	
24	25	0	
24	26	0	
24	27	0	
24	28	0	
24	29	0	
24	30	0	
24	31	0	
24	32	0	
24	33	0	
24	34	0	
24	35	0	
24	36	0	
24	37	0	
24	38	0	
24	39	0	
24	40	0	
25	0	0	
25	1	0	
25	2	0	
25	3	0	
25	4	0	
25	5	0	
25	6	0	
25	7	0	
25	8	0	
25	9	0	
25	10	0	
25	11	0	
25	12	0	
25	13	0	
25	14	0	
25	15	0	
25	16	0	
25	17	0	
25	18	0	
25	19	0	
25	20	0	
25	21	0	
25	22	0	
25	23	0	
25	24	0	
25	25	0	
25	26	0	
25	27	0	
25	28	0	
25	29	0	
25	30	0	
25	31	0	
25	32	0	
25	33	0	
25	34	0	
25	35	0	
25	36	0	
25	37	0	
25	38	0	
25	39	0	
25	40	0	
26	0	0	
26	1	0	
26	2	0	
26	3	0	
26	4	0	
26	5	0	
26	6	0	
26	7	0	
26	8	0	
26	9	0	
26	10	0	
26	11	0	
26	12	0	
26	13	0	
26	14	0	
26	15	0	
26	16	0	
26	17	0	
26	18	0	
26	19	0	
26	20	0	
26	21	0	
26	22	0	
26	23	0	
26	24	0	
26	25	0	
26	26	0	
26	27	0	
26	28	0	
26	29	0	
26	30	0	
26	31	0	
26	32	0	
26	33	0	
26	34	0	
26	35	0	
26	36	0	
26	37	0	
26	38	0	
26	39	0	
26	40	0	
27	0	0	
27	1	0	
27	2	0	
27	3	0	
27	4	0	
27	5	0	
27	6	0	
27	7	0	
27	8	0	
27	9	0	
27	10	0	
27	11	0	
27	12	0	
27	13	0	
27	14	0	
27	15	0	
27	16	0	
27	17	0	
27	18	0	
27	19	0	
27	20	0	
27	21	0	
27	22	0	
27	23	0	
27	24	0	
27	25	0	
27	26	0	
27	27	0	
27	28	0	
27	29	0	
27	30	0	
27	31	0	
27	32	0	
27	33	0	
27	34	0	
27	35	0	
27	36	0	
27	37	0	
27	38	0	
27	39	0	
27	40	0	
28	0	0	
28	1	0	
28	2	0	
28	3	0	
28	4	0	
28	5	0	
28	6	0	
28	7	0	
28	8	0	
28	9	0	
28	10	0	
28	11	0	
28	12	0	
28	13	0	
28	14	0	
28	15	0	
28	16	0	
28	17	0	
28	18	0	
28	19	0	
28	20	0	
28	21	0	
28	22	0	
28	23	0	
28	24	0	
28	25	0	
28	26	0	
28	27	0	
28	28	0	
28	29	0	
28	30	0	
[...]
POINT_DATA	2501
VECTORS d float
2.92032e-016	1.2296e-016	0	
1.67479e-016	3.66023e-017	0	
1.26426e-016	3.57504e-017	0	
1.04243e-016	3.12462e-017	0	
8.57097e-017	2.72353e-017	0	
5.76469e-017	1.31603e-017	0	
1.11942e-017	4.67193e-018	0	
3.21784e-017	5.68915e-018	0	
4.84879e-017	2.48741e-017	0	
2.42535e-017	3.7377e-017	0	
1.51079e-017	4.13772e-017	0	
1.09814e-017	4.42923e-017	0	
8.68258e-018	4.51401e-017	0	
6.67071e-018	4.60476e-017	0	
5.08522e-018	4.68792e-017	0	
3.83742e-018	4.75366e-017	0	
2.82375e-018	4.80549e-017	0	
1.98027e-018	4.84404e-017	0	
1.25534e-018	4.87112e-017	0	
6.08377e-019	4.88721e-017	0	
-1.09331e-027	4.89255e-017	0	
-6.08377e-019	4.88721e-017	0	
-1.25534e-018	4.87112e-017	0	
-1.98027e-018	4.84404e-017	0	
-2.82375e-018	4.80549e-017	0	
-3.83742e-018	4.75366e-017	0	
-5.08522e-018	4.68792e-017	0	
-6.67071e-018	4.60476e-017	0	
-8.68258e-018	4.51401e-017	0	
-1.09814e-017	4.42923e-017	0	
-1.51079e-017	4.13772e-017	0	
-2.42535e-017	3.7377e-017	0	
-4.84879e-017	2.48741e-017	0	
-3.21784e-017	5.68915e-018	0	
-1.11942e-017	4.67193e-018	0	
-5.76469e-017	1.31603e-017	0	
-8.57097e-017	2.72353e-017	0	
-1.04243e-016	3.12462e-017	0	
-1.26426e-016	3.57504e-017	0	
-1.67479e-016	3.66023e-017	0	
-2.92032e-016	1.2296e-016	0	
2.57104e-006	2.43148e-006	0	
1.47334e-006	1.6134e-006	0	
1.14491e-006	1.29665e-006	0	
9.30856e-007	1.13312e-006	0	
7.77205e-007	1.01503e-006	0	
6.39289e-007	8.75952e-007	0	
1.51307e-007	6.74679e-007	0	
6.69668e-007	9.69593e-007	0	
3.30313e-007	1.19145e-006	0	
1.60287e-007	1.24607e-006	0	
1.00133e-007	1.32616e-006	0	
8.66804e-008	1.35447e-006	0	
6.48595e-008	1.3779e-006	0	
4.82431e-008	1.40177e-006	0	
3.63221e-008	1.4223e-006	0	
2.71075e-008	1.43921e-006	0	
1.9792e-008	1.45241e-006	0	
1.3724e-008	1.46242e-006	0	
8.61754e-009	1.46946e-006	0	
4.1502e-009	1.47365e-006	0	
-9.32029e-018	1.47504e-006	0	
-4.1502e-009	1.47365e-006	0	
-8.61754e-009	1.46946e-006	0	
-1.3724e-008	1.46242e-006	0	
-1.9792e-008	1.45241e-006	0	
-2.71075e-008	1.43921e-006	0	
-3.63221e-008	1.4223e-006	0	
-4.82431e-008	1.40177e-006	0	
-6.48595e-008	1.3779e-006	0	
-8.66804e-008	1.35447e-006	0	
-1.00133e-007	1.32616e-006	0	
-1.60287e-007	1.24607e-006	0	
-3.30313e-007	1.19145e-006	0	
-6.69668e-007	9.69593e-007	0	
-1.51307e-007	6.74679e-007	0	
-6.39289e-007	8.75952e-007	0	
-7.77205e-007	1.01503e-006	0	
-9.30856e-007	1.13312e-006	0	
-1.14491e-006	1.29665e-006	0	
-1.47334e-006	1.6134e-006	0	
-2.57104e-006	2.43148e-006	0	
4.46292e-006	4.07946e-006	0	
3.15095e-006	3.41375e-006	0	
2.39111e-006	2.88838e-006	0	
1.93296e-006	2.57598e-006	0	
1.59677e-006	2.39136e-006	0	
1.28811e-006	2.31833e-006	0	
9.16651e-007	2.30129e-006	0	
1.02164e-006	2.52689e-006	0	
5.2324e-007	2.64336e-006	0	
2.72435e-007	2.84432e-006	0	
2.26251e-007	2.75529e-006	0	
1.58586e-007	2.76194e-006	0	
1.11826e-007	2.80625e-006	0	
8.20939e-008	2.84588e-006	0	
6.07678e-008	2.88051e-006	0	
4.51494e-008	2.9077e-006	0	
3.23748e-008	2.92939e-006	0	
2.20852e-008	2.94609e-006	0	
1.36845e-008	2.95792e-006	0	
6.53378e-009	2.96498e-006	0	
-1.86228e-017	2.96733e-006	0	
-6.53378e-009	2.96498e-006	0	
-1.36845e-008	2.95792e-006	0	
-2.20852e-008	2.94609e-006	0	
-3.23748e-008	2.92939e-006	0	
-4.51494e-008	2.9077e-006	0	
-6.07678e-008	2.88051e-006	0	
-8.20939e-008	2.84588e-006	0	
-1.11826e-007	2.80625e-006	0	
-1.58586e-007	2.76194e-006	0	
-2.26251e-007	2.75529e-006	0	
-2.72435e-007	2.84432e-006	0	
-5.2324e-007	2.64336e-006	0	
-1.02164e-006	2.52689e-006	0	
-9.16651e-007	2.30129e-006	0	
-1.28811e-006	2.31833e-006	0	
-1.59677e-006	2.39136e-006	0	
-1.93296e-006	2.57598e-006	0	
-2.39111e-006	2.88838e-006	0	
-3.15095e-006	3.41375e-006	0	
-4.46292e-006	4.07946e-006	0	
6.03719e-006	5.68975e-006	0	
4.65931e-006	5.0755e-006	0	
3.67072e-006	4.55412e-006	0	
2.96512e-006	4.17266e-006	0	
2.4225e-006	3.93372e-006	0	
1.95055e-006	3.79928e-006	0	
1.55541e-006	3.71833e-006	0	
1.1806e-006	3.68299e-006	0	
6.39992e-007	3.84374e-006	0	
4.99379e-007	4.08436e-006	0	
3.22117e-007	4.11452e-006	0	
2.00394e-007	4.2223e-006	0	
1.44252e-007	4.28287e-006	0	
1.03822e-007	4.33955e-006	0	
7.93717e-008	4.37708e-006	0	
5.74548e-008	4.40798e-006	0	
4.01345e-008	4.4338e-006	0	
2.6761e-008	4.45395e-006	0	
1.62913e-008	4.46835e-006	0	
7.69593e-009	4.47695e-006	0	
-2.78095e-017	4.4798e-006	0	
-7.69593e-009	4.47695e-006	0	
-1.62913e-008	4.46835e-006	0	
-2.6761e-008	4.45395e-006	0	
-4.01345e-008	4.4338e-006	0	
-5.74548e-008	4.40798e-006	0	
-7.93717e-008	4.37708e-006	0	
-1.03822e-007	4.33955e-006	0	
-1.44252e-007	4.28287e-006	0	
-2.00394e-007	4.2223e-006	0	
-3.22117e-007	4.11452e-006	0	
-4.99379e-007	4.08436e-006	0	
-6.39992e-007	3.84374e-006	0	
-1.1806e-006	3.68299e-006	0	
-1.55541e-006	3.71833e-006	0	
-1.95055e-006	3.79928e-006	0	
-2.4225e-006	3.93372e-006	0	
-2.96512e-006	4.17266e-006	0	
-3.67072e-006	4.55412e-006	0	
-4.65931e-006	5.0755e-006	0	
-6.03719e-006	5.68975e-006	0	
7.44202e-006	7.26198e-006	0	
6.01865e-006	6.70477e-006	0	
4.88333e-006	6.20863e-006	0	
3.98791e-006	5.81866e-006	0	
3.26308e-006	5.54338e-006	0	
2.65449e-006	5.3619e-006	0	
2.1274e-006	5.25042e-006	0	
1.59618e-006	5.1842e-006	0	
7.28097e-007	5.04641e-006	0	
7.74579e-007	5.36634e-006	0	
2.36778e-007	5.6149e-006	0	
2.30383e-007	5.73123e-006	0	
1.50669e-007	5.84741e-006	0	
1.31996e-007	5.8797e-006	0	
9.59242e-008	5.90916e-006	0	
6.66924e-008	5.93998e-006	0	
4.51309e-008	5.96627e-006	0	
2.93162e-008	5.98712e-006	0	
1.75358e-008	6.0019e-006	0	
8.16635e-009	6.01075e-006	0	
-3.7044e-017	6.01371e-006	0	
-8.16635e-009	6.01075e-006	0	
-1.75358e-008	6.0019e-006	0	
-2.93162e-008	5.98712e-006	0	
-4.51309e-008	5.96627e-006	0	
-6.66924e-008	5.93998e-006	0	
-9.59242e-008	5.90916e-006	0	
-1.31996e-007	5.8797e-006	0	
-1.50669e-007	5.84741e-006	0	
-2.30383e-007	5.73123e-006	0	
-2.36778e-007	5.6149e-006	0	
-7.74579e-007	5.36634e-006	0	
-7.28097e-007	5.04641e-006	0	
-1.59618e-006	5.1842e-006	0	
-2.1274e-006	5.25042e-006	0	
-2.65449e-006	5.3619e-006	0	
-3.26308e-006	5.54338e-006	0	
-3.98791e-006	5.81866e-006	0	
-4.88333e-006	6.20863e-006	0	
-6.01865e-006	6.70477e-006	0	
-7.44202e-006	7.26198e-006	0	
8.72439e-006	8.83269e-006	0	
7.26084e-006	8.31802e-006	0	
6.01598e-006	7.85397e-006	0	
4.971e-006	7.47548e-006	0	
4.09275e-006	7.19669e-006	0	
3.34531e-006	7.01436e-006	0	
2.68677e-006	6.92114e-006	0	
2.04456e-006	6.91542e-006	0	
1.33196e-006	6.9495e-006	0	
1.08938e-006	7.17413e-006	0	
4.49636e-007	7.3159e-006	0	
1.65367e-007	7.55853e-006	0	
2.33303e-007	7.45628e-006	0	
1.65109e-007	7.44229e-006	0	
1.10704e-007	7.47318e-006	0	
7.4306e-008	7.50147e-006	0	
4.88496e-008	7.52648e-006	0	
3.14539e-008	7.54479e-006	0	
1.83843e-008	7.55793e-006	0	
8.40357e-009	7.56597e-006	0	
-4.5997e-017	7.56868e-006	0	
-8.40357e-009	7.56597e-006	0	
-1.83843e-008	7.55793e-006	0	
-3.14539e-008	7.54479e-006	0	
-4.88496e-008	7.52648e-006	0	
-7.4306e-008	7.50147e-006	0	
-1.10704e-007	7.47318e-006	0	
-1.65109e-007	7.44229e-006	0	
-2.33303e-007	7.45628e-006	0	
-1.65367e-007	7.55853e-006	0	
-4.49636e-007	7.3159e-006	0	
-1.08938e-006	7.17413e-006	0	
-1.33196e-006	6.9495e-006	0	
-2.04456e-006	6.91542e-006	0	
-2.68677e-006	6.92114e-006	0	
-3.34531e-006	7.01436e-006	0	
-4.09275e-006	7.19669e-006	0	
-4.971e-006	7.47548e-006	0	
-6.01598e-006	7.85397e-006	0	
-7.26084e-006	8.31802e-006	0	
-8.72439e-006	8.83269e-006	0	
9.91724e-006	1.04094e-005	0	
8.41293e-006	9.92729e-006	0	
7.07377e-006	9.49172e-006	0	
5.90047e-006	9.13339e-006	0	
4.88295e-006	8.8685e-006	0	
4.00236e-006	8.69852e-006	0	
3.22557e-006	8.61337e-006	0	
2.50413e-006	8.58754e-006	0	
1.85327e-006	8.57274e-006	0	
1.25757e-006	8.56734e-006	0	
5.90973e-007	8.73251e-006	0	
4.31257e-007	8.99492e-006	0	
3.00411e-007	8.9505e-006	0	
1.82094e-007	9.03316e-006	0	
1.2279e-007	9.06366e-006	0	
7.94681e-008	9.09554e-006	0	
5.49505e-008	9.11149e-006	0	
3.44579e-008	9.12406e-006	0	
1.95216e-008	9.13421e-006	0	
8.7009e-009	9.14071e-006	0	
-5.49506e-017	9.14297e-006	0	
-8.7009e-009	9.14071e-006	0	
-1.95216e-008	9.13421e-006	0	
-3.44579e-008	9.12406e-006	0	
-5.49505e-008	9.11149e-006	0	
-7.94681e-008	9.09554e-006	0	
-1.2279e-007	9.06366e-006	0	
-1.82094e-007	9.03316e-006	0	
-3.00411e-007	8.9505e-006	0	
-4.31257e-007	8.99492e-006	0	
-5.90973e-007	8.73251e-006	0	
-1.25757e-006	8.56734e-006	0	
-1.85327e-006	8.57274e-006	0	
-2.50413e-006	8.58754e-006	0	
-3.22557e-006	8.61337e-006	0	
-4.00236e-006	8.69852e-006	0	
-4.88295e-006	8.8685e-006	0	
-5.90047e-006	9.13339e-006	0	
-7.07377e-006	9.49172e-006	0	
-8.41293e-006	9.92729e-006	0	
-9.91724e-006	1.04094e-005	0	
1.10472e-005	1.20002e-005	0	
9.49715e-006	1.15406e-005	0	
8.06762e-006	1.11267e-005	0	
6.77326e-006	1.07867e-005	0	
5.62288e-006	1.05386e-005	0	
4.6198e-006	1.0383e-005	0	
3.75143e-006	1.02996e-005	0	
2.99049e-006	1.02523e-005	0	
2.31003e-006	1.02161e-005	0	
1.64501e-006	1.01763e-005	0	
6.8846e-007	1.00402e-005	0	
7.28063e-007	1.03666e-005	0	
2.21943e-007	1.06248e-005	0	
2.0625e-007	1.06504e-005	0	
1.17266e-007	1.07201e-005	0	
9.91409e-008	1.07144e-005	0	
6.48117e-008	1.07135e-005	0	
3.86802e-008	1.07203e-005	0	
2.10675e-008	1.07272e-005	0	
9.11122e-009	1.0732e-005	0	
-6.33253e-017	1.07337e-005	0	
-9.11122e-009	1.0732e-005	0	
-2.10675e-008	1.07272e-005	0	
-3.86802e-008	1.07203e-005	0	
-6.48117e-008	1.07135e-005	0	
-9.91409e-008	1.07144e-005	0	
-1.17266e-007	1.07201e-005	0	
-2.0625e-007	1.06504e-005	0	
-2.21943e-007	1.06248e-005	0	
-7.28063e-007	1.03666e-005	0	
-6.8846e-007	1.00402e-005	0	
-1.64501e-006	1.01763e-005	0	
-2.31003e-006	1.02161e-005	0	
-2.99049e-006	1.02523e-005	0	
-3.75143e-006	1.02996e-005	0	
-4.6198e-006	1.0383e-005	0	
-5.62288e-006	1.05386e-005	0	
-6.77326e-006	1.07867e-005	0	
-8.06762e-006	1.11267e-005	0	
-9.49715e-006	1.15406e-005	0	
-1.10472e-005	1.20002e-005	0	
1.21373e-005	1.36166e-005	0	
1.05328e-005	1.31707e-005	0	
9.01223e-006	1.27685e-005	0	
7.59627e-006	1.24361e-005	0	
6.30895e-006	1.21979e-005	0	
5.18618e-006	1.20589e-005	0	
4.24862e-006	1.19896e-005	0	
3.45896e-006	1.19505e-005	0	
2.75213e-006	1.19295e-005	0	
2.05297e-006	1.19451e-005	0	
1.29618e-006	1.19755e-005	0	
1.05093e-006	1.21935e-005	0	
4.47773e-007	1.23372e-005	0	
1.40473e-007	1.2558e-005	0	
1.98501e-007	1.23862e-005	0	
1.28412e-007	1.23258e-005	0	
7.52708e-008	1.23244e-005	0	
4.28144e-008	1.23279e-005	0	
2.23406e-008	1.23334e-005	0	
9.7858e-009	1.23362e-005	0	
-7.1571e-017	1.23371e-005	0	
-9.7858e-009	1.23362e-005	0	
-2.23406e-008	1.23334e-005	0	
-4.28144e-008	1.23279e-005	0	
-7.52708e-008	1.23244e-005	0	
-1.28412e-007	1.23258e-005	0	
-1.98501e-007	1.23862e-005	0	
-1.40473e-007	1.2558e-005	0	
-4.47773e-007	1.23372e-005	0	
-1.05093e-006	1.21935e-005	0	
-1.29618e-006	1.19755e-005	0	
-2.05297e-006	1.19451e-005	0	
-2.75213e-006	1.19295e-005	0	
-3.45896e-006	1.19505e-005	0	
-4.24862e-006	1.19896e-005	0	
-5.18618e-006	1.20589e-005	0	
-6.30895e-006	1.21979e-005	0	
-7.59627e-006	1.24361e-005	0	
-9.01223e-006	1.27685e-005	0	
-1.05328e-005	1.31707e-005	0	
-1.21373e-005	1.36166e-005	0	
1.32052e-005	1.52766e-005	0	
1.15358e-005	1.48378e-005	0	
9.9255e-006	1.44374e-005	0	
8.38752e-006	1.40942e-005	0	
6.9443e-006	1.38436e-005	0	
5.67756e-006	1.37176e-005	0	
4.69201e-006	1.36737e-005	0	
3.90171e-006	1.36433e-005	0	
3.18516e-006	1.36155e-005	0	
2.47557e-006	1.35974e-005	0	
1.8156e-006	1.35697e-005	0	
1.2117e-006	1.35468e-005	0	
5.91962e-007	1.37107e-005	0	
3.85115e-007	1.39525e-005	0	
2.61397e-007	1.38789e-005	0	
1.37912e-007	1.39314e-005	0	
8.10973e-008	1.39361e-005	0	
4.27319e-008	1.39478e-005	0	
2.46238e-008	1.39484e-005	0	
1.05892e-008	1.39485e-005	0	
-7.89196e-017	1.39488e-005	0	
-1.05892e-008	1.39485e-005	0	
-2.46238e-008	1.39484e-005	0	
-4.27319e-008	1.39478e-005	0	
-8.10973e-008	1.39361e-005	0	
-1.37912e-007	1.39314e-005	0	
-2.61397e-007	1.38789e-005	0	
-3.85115e-007	1.39525e-005	0	
-5.91962e-007	1.37107e-005	0	
-1.2117e-006	1.35468e-005	0	
-1.8156e-006	1.35697e-005	0	
-2.47557e-006	1.35974e-005	0	
-3.18516e-006	1.36155e-005	0	
-3.90171e-006	1.36433e-005	0	
-4.69201e-006	1.36737e-005	0	
-5.67756e-006	1.37176e-005	0	
-6.9443e-006	1.38436e-005	0	
-8.38752e-006	1.40942e-005	0	
-9.9255e-006	1.44374e-005	0	
-1.15358e-005	1.48378e-005	0	
-1.32052e-005	1.52766e-005	0	
1.42593e-005	1.70007e-005	0	
1.25168e-005	1.6567e-005	0	
1.08224e-005	1.61644e-005	0	
9.17514e-006	1.57998e-005	0	
7.56041e-006	1.54965e-005	0	
6.06417e-006	1.53375e-005	0	
5.06607e-006	1.53211e-005	0	
4.33208e-006	1.52981e-005	0	
3.63498e-006	1.52472e-005	0	
2.9346e-006	1.51989e-005	0	
2.26401e-006	1.51566e-005	0	
1.60171e-006	1.51119e-005	0	
6.88562e-007	1.49842e-005	0	
6.57876e-007	1.52859e-005	0	
1.63772e-007	1.55337e-005	0	
1.47127e-007	1.55336e-005	0	
6.28085e-008	1.55877e-005	0	
5.13519e-008	1.55732e-005	0	
2.7008e-008	1.55652e-005	0	
1.10231e-008	1.55646e-005	0	
-8.60061e-017	1.55645e-005	0	
-1.10231e-008	1.55646e-005	0	
-2.7008e-008	1.55652e-005	0	
-5.13519e-008	1.55732e-005	0	
-6.28085e-008	1.55877e-005	0	
-1.47127e-007	1.55336e-005	0	
-1.63772e-007	1.55337e-005	0	
-6.57876e-007	1.52859e-005	0	
-6.88562e-007	1.49842e-005	0	
-1.60171e-006	1.51119e-005	0	
-2.26401e-006	1.51566e-005	0	
-2.9346e-006	1.51989e-005	0	
-3.63498e-006	1.52472e-005	0	
-4.33208e-006	1.52981e-005	0	
-5.06607e-006	1.53211e-005	0	
-6.06417e-006	1.53375e-005	0	
-7.56041e-006	1.54965e-005	0	
-9.17514e-006	1.57998e-005	0	
-1.08224e-005	1.61644e-005	0	
-1.25168e-005	1.6567e-005	0	
-1.42593e-005	1.70007e-005	0	
1.5298e-005	1.88048e-005	0	
1.34793e-005	1.83784e-005	0	
1.17094e-005	1.79783e-005	0	
9.97038e-006	1.76042e-005	0	
8.22517e-006	1.72615e-005	0	
6.41154e-006	1.69702e-005	0	
5.36908e-006	1.69115e-005	0	
4.77674e-006	1.68768e-005	0	
4.09338e-006	1.6831e-005	0	
3.3802e-006	1.68077e-005	0	
2.69258e-006	1.67941e-005	0	
2.00133e-006	1.68069e-005	0	
1.25008e-006	1.683e-005	0	
9.47206e-007	1.70321e-005	0	
3.858e-007	1.71826e-005	0	
4.68844e-008	1.73787e-005	0	
1.17098e-007	1.72276e-005	0	
5.97159e-008	1.7178e-005	0	
2.56987e-008	1.71787e-005	0	
9.63081e-009	1.71797e-005	0	
-9.19813e-017	1.71815e-005	0	
-9.63081e-009	1.71797e-005	0	
-2.56987e-008	1.71787e-005	0	
-5.97159e-008	1.7178e-005	0	
-1.17098e-007	1.72276e-005	0	
-4.68844e-008	1.73787e-005	0	
-3.858e-007	1.71826e-005	0	
-9.47206e-007	1.70321e-005	0	
-1.25008e-006	1.683e-005	0	
-2.00133e-006	1.68069e-005	0	
-2.69258e-006	1.67941e-005	0	
-3.3802e-006	1.68077e-005	0	
-4.09338e-006	1.6831e-005	0	
-4.77674e-006	1.68768e-005	0	
-5.36908e-006	1.69115e-005	0	
-6.41154e-006	1.69702e-005	0	
-8.22517e-006	1.72615e-005	0	
-9.97038e-006	1.76042e-005	0	
-1.17094e-005	1.79783e-005	0	
-1.34793e-005	1.83784e-005	0	
-1.5298e-005	1.88048e-005	0	
1.63126e-005	2.06931e-005	0	
1.44216e-005	2.02781e-005	0	
1.2584e-005	1.98873e-005	0	
1.07688e-005	1.95216e-005	0	
8.92778e-006	1.91889e-005	0	
7.01848e-006	1.8888e-005	0	
5.53096e-006	1.82296e-005	0	
5.27497e-006	1.8409e-005	0	
4.51955e-006	1.84244e-005	0	
3.80404e-006	1.84277e-005	0	
3.10661e-006	1.84187e-005	0	
2.40502e-006	1.84141e-005	0	
1.74368e-006	1.83909e-005	0	
1.09307e-006	1.83547e-005	0	
5.40806e-007	1.85321e-005	0	
2.6418e-007	1.87573e-005	0	
1.34158e-007	1.87026e-005	0	
4.09144e-008	1.87718e-005	0	
1.72297e-008	1.87829e-005	0	
3.20537e-009	1.8796e-005	0	
-9.74812e-017	1.87965e-005	0	
-3.20537e-009	1.8796e-005	0	
-1.72297e-008	1.87829e-005	0	
-4.09145e-008	1.87718e-005	0	
-1.34158e-007	1.87026e-005	0	
-2.6418e-007	1.87573e-005	0	
-5.40806e-007	1.85321e-005	0	
-1.09307e-006	1.83547e-005	0	
-1.74368e-006	1.83909e-005	0	
-2.40502e-006	1.84141e-005	0	
-3.10661e-006	1.84187e-005	0	
-3.80404e-006	1.84277e-005	0	
-4.51955e-006	1.84244e-005	0	
-5.27497e-006	1.8409e-005	0	
-5.53096e-006	1.82296e-005	0	
-7.01848e-006	1.8888e-005	0	
-8.92778e-006	1.91889e-005	0	
-1.07688e-005	1.95216e-005	0	
-1.2584e-005	1.98873e-005	0	
-1.44216e-005	2.02781e-005	0	
-1.63126e-005	2.06931e-005	0	
1.72936e-005	2.2657e-005	0	
1.53407e-005	2.22559e-005	0	
1.34448e-005	2.18763e-005	0	
1.15658e-005	2.15191e-005	0	
9.65926e-006	2.11866e-005	0	
7.69683e-006	2.08773e-005	0	
5.84301e-006	1.99868e-005	0	
5.87034e-006	2.0267e-005	0	
4.94418e-006	2.0109e-005	0	
4.23172e-006	2.0051e-005	0	
3.52646e-006	2.00257e-005	0	
2.83942e-006	1.99969e-005	0	
2.1718e-006	1.99651e-005	0	
1.50086e-006	1.99294e-005	0	
6.51158e-007	1.98246e-005	0	
5.14848e-007	2.01008e-005	0	
-1.84519e-008	2.03305e-005	0	
1.83797e-008	2.03486e-005	0	
-1.59367e-008	2.04155e-005	0	
4.89643e-009	2.04086e-005	0	
-1.01699e-016	2.04046e-005	0	
-4.89643e-009	2.04086e-005	0	
1.59367e-008	2.04155e-005	0	
-1.83797e-008	2.03486e-005	0	
1.84519e-008	2.03305e-005	0	
-5.14848e-007	2.01008e-005	0	
-6.51158e-007	1.98246e-005	0	
-1.50086e-006	1.99294e-005	0	
-2.1718e-006	1.99651e-005	0	
-2.83942e-006	1.99969e-005	0	
-3.52646e-006	2.00257e-005	0	
-4.23172e-006	2.0051e-005	0	
-4.94418e-006	2.0109e-005	0	
-5.87034e-006	2.0267e-005	0	
-5.84301e-006	1.99868e-005	0	
-7.69683e-006	2.08773e-005	0	
-9.65926e-006	2.11866e-005	0	
-1.15658e-005	2.15191e-005	0	
-1.34448e-005	2.18763e-005	0	
-1.53407e-005	2.22559e-005	0	
-1.72936e-005	2.2657e-005	0	
1.82347e-005	2.46797e-005	0	
1.62352e-005	2.42934e-005	0	
1.42944e-005	2.39228e-005	0	
1.23693e-005	2.35681e-005	0	
1.04178e-005	2.32294e-005	0	
8.41567e-006	2.29056e-005	0	
6.51669e-006	2.23107e-005	0	
5.95684e-006	2.15216e-005	0	
5.42502e-006	2.16832e-005	0	
4.64886e-006	2.16534e-005	0	
3.95612e-006	2.16257e-005	0	
3.27217e-006	2.15939e-005	0	
2.5909e-006	2.15712e-005	0	
1.89967e-006	2.1575e-005	0	
1.15333e-006	2.15936e-005	0	
7.67907e-007	2.17813e-005	0	
1.885e-007	2.193e-005	0	
-1.35182e-007	2.21299e-005	0	
2.20076e-008	2.20267e-005	0	
1.95551e-009	2.20011e-005	0	
-1.05258e-016	2.20109e-005	0	
-1.95551e-009	2.20011e-005	0	
-2.20076e-008	2.20267e-005	0	
1.35182e-007	2.21299e-005	0	
-1.885e-007	2.193e-005	0	
-7.67907e-007	2.17813e-005	0	
-1.15333e-006	2.15936e-005	0	
-1.89967e-006	2.1575e-005	0	
-2.5909e-006	2.15712e-005	0	
-3.27217e-006	2.15939e-005	0	
-3.95612e-006	2.16257e-005	0	
-4.64886e-006	2.16534e-005	0	
-5.42502e-006	2.16832e-005	0	
-5.95684e-006	2.15216e-005	0	
-6.51669e-006	2.23107e-005	0	
-8.41567e-006	2.29056e-005	0	
-1.04178e-005	2.32294e-005	0	
-1.23693e-005	2.35681e-005	0	
-1.42944e-005	2.39228e-005	0	
-1.62352e-005	2.42934e-005	0	
-1.82347e-005	2.46797e-005	0	
1.91334e-005	2.67416e-005	0	
1.7105e-005	2.63699e-005	0	
1.51358e-005	2.60067e-005	0	
1.31824e-005	2.5652e-005	0	
1.12034e-005	2.53056e-005	0	
9.17502e-006	2.49673e-005	0	
7.24188e-006	2.46609e-005	0	
6.15509e-006	2.31118e-005	0	
5.85676e-006	2.33366e-005	0	
5.0736e-006	2.32598e-005	0	
4.38635e-006	2.3218e-005	0	
3.70477e-006	2.3182e-005	0	
3.00462e-006	2.31593e-005	0	
2.29138e-006	2.31558e-005	0	
1.61028e-006	2.31424e-005	0	
9.01659e-007	2.31061e-005	0	
3.4474e-007	2.3292e-005	0	
8.01182e-008	2.35292e-005	0	
1.74118e-008	2.35022e-005	0	
-3.59215e-008	2.36082e-005	0	
-1.07627e-016	2.36253e-005	0	
3.59215e-008	2.36082e-005	0	
-1.74118e-008	2.35022e-005	0	
-8.01182e-008	2.35292e-005	0	
-3.4474e-007	2.3292e-005	0	
-9.01659e-007	2.31061e-005	0	
-1.61028e-006	2.31424e-005	0	
-2.29138e-006	2.31558e-005	0	
-3.00462e-006	2.31593e-005	0	
-3.70477e-006	2.3182e-005	0	
-4.38635e-006	2.3218e-005	0	
-5.0736e-006	2.32598e-005	0	
-5.85676e-006	2.33366e-005	0	
-6.15509e-006	2.31118e-005	0	
-7.24188e-006	2.46609e-005	0	
-9.17502e-006	2.49673e-005	0	
-1.12034e-005	2.53056e-005	0	
-1.31824e-005	2.5652e-005	0	
-1.51358e-005	2.60067e-005	0	
-1.7105e-005	2.63699e-005	0	
-1.91334e-005	2.67416e-005	0	
1.99889e-005	2.88229e-005	0	
1.79503e-005	2.84658e-005	0	
1.59701e-005	2.81098e-005	0	
1.40056e-005	2.77552e-005	0	
1.20157e-005	2.74013e-005	0	
9.97553e-006	2.70486e-005	0	
8.04459e-006	2.66924e-005	0	
6.37267e-006	2.44543e-005	0	
5.98047e-006	2.46554e-005	0	
5.51025e-006	2.48461e-005	0	
4.82372e-006	2.47824e-005	0	
4.1443e-006	2.47415e-005	0	
3.41562e-006	2.47302e-005	0	
2.69955e-006	2.47242e-005	0	
2.00292e-006	2.47239e-005	0	
1.30609e-006	2.47209e-005	0	
4.67133e-007	2.46379e-005	0	
3.44237e-007	2.49359e-005	0	
-1.2328e-007	2.51817e-005	0	
-1.20455e-007	2.5225e-005	0	
-1.10435e-016	2.53358e-005	0	
1.20455e-007	2.5225e-005	0	
1.2328e-007	2.51817e-005	0	
-3.44237e-007	2.49359e-005	0	
-4.67133e-007	2.46379e-005	0	
-1.30609e-006	2.47209e-005	0	