# vtk DataFile Version 4.1
vtk output
ASCII
DATASET UNSTRUCTURED_GRID

POINTS	252	float
0	0	0	
1	0	0	
1	1	0	
0	1	0	
0.396035	0.404847	0	
0.5	1	0	
0	0.5	0	
1	0.5	0	
0.5	0	0	
0.771055	0.563039	0	
0.560945	0.228528	0	
0.28112	0.254914	0	
0.193631	0.591265	0	
0.401441	0.288553	0	
1	0.75	0	
0.75	0	0	
0.75	1	0	
1	0.25	0	
0.25	0	0	
0	0.25	0	
0	0.75	0	
0.25	1	0	
0.515464	0.694339	0	
0.237351	0.439289	0	
0.849323	0.405198	0	
0.759271	0.739982	0	
0.653928	0.236385	0	
0.24225	0.802831	0	
0.374885	0.797786	0	
0.602225	0.399758	0	
0.126195	0.177208	0	
0.503691	0.789288	0	
0.935652	0.837825	0	
0.357515	0.666671	0	
0.33525	0.124246	0	
0.454036	0.350803	0	
0.329773	0.336974	0	
0.848367	0.722309	0	
0.133443	0.530578	0	
0.079291	0.649701	0	
0.120766	0.27222	0	
0.13072	0.869768	0	
0	0.375	0	
0.494089	0.163397	0	
0.618645	0.105056	0	
0.319525	0.858254	0	
0.859588	0.123146	0	
1	0.625	0	
1	0.875	0	
0.875	1	0	
0.875	0	0	
0.625	1	0	
1	0.375	0	
1	0.125	0	
0.125	0	0	
0	0.125	0	
0.375	0	0	
0	0.625	0	
0	0.875	0	
0.125	1	0	
0.625	0	0	
0.375	1	0	
0.242233	0.116109	0	
0.0680996	0.404415	0	
0.802244	0.324346	0	
0.933867	0.562856	0	
0.0781588	0.786932	0	
0.890341	0.202511	0	
0.76081	0.883635	0	
0.507455	0.605081	0	
0.279081	0.719012	0	
0.285269	0.499065	0	
0.751435	0.475858	0	
0.242454	0.322128	0	
0.405655	0.86196	0	
0.671465	0.63098	0	
0.704435	0.817771	0	
0.224747	0.887798	0	
0.835399	0.923572	0	
0.511188	0.463872	0	
0.931883	0.280348	0	
0.653247	0.324683	0	
0.616869	0.561172	0	
0.70716	0.0744149	0	
0.923075	0.919936	0	
0.0844949	0.089529	0	
0.210956	0.193725	0	
0.129781	0.358082	0	
0.93219	0.0829308	0	
0.425458	0.734732	0	
0.822504	0.845553	0	
0.314308	0.426292	0	
0.209463	0.510165	0	
0.626723	0.865331	0	
0.169126	0.0727511	0	
0.750704	0.650404	0	
0.391069	0.587875	0	
0.927354	0.14175	0	
0.289605	0.0568669	0	
0.920176	0.655622	0	
0.939632	0.752453	0	
0.448379	0.0795425	0	
0.0592952	0.91316	0	
0.833955	0.491901	0	
0.0575891	0.56337	0	
0.134916	0.714953	0	
0.278802	0.62602	0	
0.801805	0.230703	0	
0.688086	0.412907	0	
0.563535	0.318986	0	
0.395321	0.345294	0	
0.459184	0.535618	0	
0.0536348	0.851472	0	
0.535562	0.876517	0	
0.489422	0.280605	0	
0.0681143	0.479773	0	
0.534483	0.0900718	0	
0.0642138	0.717508	0	
0.028701	0.685942	0	
0.860628	0.273852	0	
0.833128	0.635091	0	
0.313153	0.783668	0	
0.631336	0.705855	0	
0.356944	0.213068	0	
0.582893	0.640056	0	
0.672215	0.494055	0	
0.591374	0.47638	0	
0.0581227	0.220782	0	
0.77219	0.14838	0	
0.72092	0.943925	0	
0.0611089	0.33333	0	
0.580746	0.0398294	0	
0.696135	0.562465	0	
0.920498	0.470382	0	
0.775926	0.950226	0	
0.206507	0.672778	0	
0.589362	0.938371	0	
0.264872	0.38032	0	
0.95462	0.175171	0	
0.0537625	0.160004	0	
0.795016	0.0651908	0	
0.372445	0.497164	0	
0.727932	0.279206	0	
0.167054	0.943056	0	
0.441118	0.647117	0	
0.939796	0.373183	0	
0.0479996	0.277766	0	
0.5649	0.152649	0	
0.435482	0.807319	0	
0.458232	0.928826	0	
0.378086	0.926638	0	
0.857449	0.563185	0	
0.2979	0.946894	0	
1	0.8125	0	
0.3125	0	0	
0	0.1875	0	
0.2853	0.180412	0	
1	0.5625	0	
0	0.4375	0	
0	0.3125	0	
0.149532	0.442746	0	
1	0.6875	0	
1	0.9375	0	
0.5625	1	0	
0.1875	0	0	
0	0.0625	0	
0	0.5625	0	
0	0.8125	0	
0.6875	0	0	
0.16361	0.792182	0	
0.3125	1	0	
1	0.3125	0	
0.8125	1	0	
0.9375	1	0	
0.772438	0.814331	0	
0.572062	0.746873	0	
0.873217	0.801418	0	
0.574077	0.81215	0	
0.0625	0	0	
1	0.0625	0	
0.9375	0	0	
0.4375	0	0	
0	0.9375	0	
0.0625	1	0	
0	0.6875	0	
0.6875	1	0	
0.5625	0	0	
1	0.4375	0	
1	0.1875	0	
0.8125	0	0	
0.1875	1	0	
0.4375	1	0	
0.728354	0.348571	0	
0.177574	0.135716	0	
0.199734	0.264798	0	
0.541379	0.538043	0	
0.441643	0.219817	0	
0.411258	0.150248	0	
0.72271	0.523854	0	
0.770127	0.401753	0	
0.320345	0.563197	0	
0.607914	0.277146	0	
0.727727	0.21063	0	
0.682665	0.158509	0	
0.522967	0.387711	0	
0.147322	0.644943	0	
0.108914	0.945197	0	
0.694029	0.890057	0	
0.699639	0.695104	0	
0.575439	0.696781	0	
0.868632	0.0452113	0	
0.205273	0.740351	0	
0.449707	0.593923	0	
0.440791	0.46312	0	
0.178642	0.318829	0	
0.164413	0.226988	0	
0.190332	0.838145	0	
0.257502	0.557942	0	
0.876775	0.331385	0	
0.657256	0.939614	0	
0.64381	0.0438601	0	
0.556939	0.43193	0	
0.87797	0.865661	0	
0.81516	0.784719	0	
0.72234	0.601722	0	
0.529131	0.948743	0	
0.139347	0.118801	0	
0.342319	0.273377	0	
0.562149	0.586088	0	
0.369926	0.0517247	0	
0.465003	0.414071	0	
0.632342	0.782713	0	
0.336933	0.610941	0	
0.467725	0.852782	0	
0.616216	0.176226	0	
0.350018	0.740374	0	
0.685405	0.748285	0	
0.22544	0.95555	0	
0.797868	0.686947	0	
0.886155	0.604188	0	
0.830981	0.176185	0	
0.955369	0.219106	0	
0.80121	0.443677	0	
0.886442	0.522081	0	
0.227693	0.0491454	0	
0.200439	0.376899	0	
0.391203	0.10144	0	
0.412205	0.963866	0	
0.122255	0.595971	0	
0.50749	0.334526	0	
0.496525	0.223087	0	
0.638475	0.445775	0	

CELLS 438	1752
3	109	81	29	
3	160	92	38	
3	114	35	13	
3	110	13	35	
3	212	144	96	
3	130	63	42	
3	99	65	47	
3	147	116	44	
3	124	82	75	
3	153	32	100	
3	198	132	125	
3	220	83	44	
3	226	85	94	
3	146	127	40	
3	117	105	66	
3	144	89	33	
3	196	114	13	
3	156	123	11	
3	84	32	48	
3	210	140	189	
3	207	76	68	
3	201	26	81	
3	154	98	18	
3	215	30	86	
3	118	57	39	
3	211	27	169	
3	233	31	113	
3	207	68	129	
3	91	71	23	
3	137	91	23	
3	243	133	65	
3	171	145	80	
3	176	100	32	
3	224	95	75	
3	218	64	119	
3	97	88	53	
3	169	41	66	
3	216	77	41	
3	121	45	27	
3	247	150	149	
3	204	109	29	
3	144	69	22	
3	139	85	30	
3	155	127	19	
3	209	175	22	
3	89	22	31	
3	222	176	32	
3	222	90	176	
3	232	33	106	
3	135	106	70	
3	197	101	43	
3	229	98	154	
3	110	35	4	
3	221	204	29	
3	227	36	11	
3	245	137	23	
3	157	65	7	
3	120	95	9	
3	160	115	63	
3	104	39	57	
3	248	205	39	
3	248	12	205	
3	158	63	115	
3	245	73	137	
3	112	102	58	
3	206	143	59	
3	159	130	42	
3	220	44	131	
3	197	43	196	
3	234	147	44	
3	234	10	147	
3	77	27	45	
3	152	150	61	
3	140	46	128	
3	240	67	107	
3	161	99	47	
3	162	84	48	
3	172	134	78	
3	210	50	180	
3	163	136	51	
3	187	145	52	
3	241	138	188	
3	164	94	54	
3	165	85	55	
3	229	56	181	
3	166	104	57	
3	167	66	112	
3	206	59	183	
3	220	168	83	
3	170	152	61	
3	193	86	30	
3	156	34	123	
3	160	38	115	
3	160	63	87	
3	125	108	72	
3	119	107	67	
3	243	65	151	
3	239	151	65	
3	117	66	20	
3	167	112	58	
3	171	80	17	
3	138	67	97	
3	134	16	129	
3	90	78	68	
3	224	75	132	
3	221	29	126	
3	121	27	70	
3	235	70	33	
3	92	23	71	
3	217	106	12	
3	103	9	72	
3	242	199	24	
3	73	11	36	
3	215	86	194	
3	148	74	28	
3	74	45	28	
3	124	75	122	
3	208	122	75	
3	174	76	25	
3	236	25	76	
3	143	41	77	
3	237	152	21	
3	172	78	49	
3	222	32	84	
3	230	4	35	
3	195	111	79	
3	241	17	80	
3	119	67	80	
3	108	29	81	
3	202	142	26	
3	251	126	29	
3	195	79	126	
3	203	44	83	
3	140	128	83	
3	84	49	78	
3	173	84	162	
3	94	85	54	
3	178	85	165	
3	194	86	11	
3	156	11	86	
3	214	87	40	
3	130	87	63	
3	180	179	88	
3	210	180	88	
3	235	33	89	
3	148	28	89	
3	223	25	37	
3	223	174	25	
3	141	91	4	
3	91	36	4	
3	92	12	38	
3	217	12	92	
3	231	93	177	
3	177	113	31	
3	226	94	193	
3	244	94	164	
3	208	75	95	
3	238	25	95	
3	212	96	111	
3	213	141	4	
3	97	46	88	
3	97	67	46	
3	244	18	98	
3	98	34	62	
3	239	65	99	
3	100	37	99	
3	153	100	14	
3	161	100	99	
3	116	43	101	
3	229	181	101	
3	183	182	102	
3	206	183	102	
3	133	103	24	
3	242	24	103	
3	248	39	104	
3	115	38	104	
3	169	66	105	
3	211	105	135	
3	106	33	70	
3	217	200	106	
3	240	107	128	
3	142	107	64	
3	199	72	108	
3	192	108	81	
3	201	81	109	
3	249	114	109	
3	110	36	13	
3	110	4	36	
3	230	213	4	
3	141	111	96	
3	112	41	102	
3	112	66	41	
3	233	113	149	
3	225	136	163	
3	114	10	109	
3	250	10	114	
3	158	115	6	
3	115	104	6	
3	131	44	116	
3	116	101	8	
3	117	39	105	
3	118	39	117	
3	184	118	20	
3	118	117	20	
3	119	64	107	
3	218	119	80	
3	238	95	120	
3	120	99	37	
3	121	28	45	
3	235	121	70	
3	209	22	124	
3	231	175	122	
3	227	11	123	
3	196	13	123	
3	228	124	69	
3	124	22	69	
3	198	125	72	
3	251	29	108	
3	195	126	82	
3	126	125	82	
3	127	30	40	
3	139	30	127	
3	203	83	128	
3	203	202	26	
3	219	129	185	
3	185	129	16	
3	130	40	87	
3	146	40	130	
3	186	131	8	
3	131	116	8	
3	132	82	125	
3	132	75	82	
3	133	7	65	
3	187	133	145	
3	134	68	78	
3	134	129	68	
3	135	12	106	
3	205	12	135	
3	219	51	136	
3	136	113	93	
3	137	36	91	
3	137	73	36	
3	188	138	53	
3	138	97	53	
3	139	55	85	
3	155	139	127	
3	189	140	15	
3	140	83	15	
3	141	71	91	
3	200	71	141	
3	142	81	26	
3	192	81	142	
3	237	190	143	
3	237	21	190	
3	144	33	96	
3	144	22	89	
3	218	80	145	
3	145	133	24	
3	146	19	127	
3	159	146	130	
3	147	43	116	
3	147	10	43	
3	233	148	31	
3	148	89	31	
3	191	149	5	
3	225	5	149	
3	150	74	149	
3	150	45	74	
3	151	9	103	
3	151	120	9	
3	152	45	150	
3	152	77	45	
3	153	48	32	
3	229	154	56	
3	155	55	139	
3	156	62	34	
3	156	86	62	
3	157	47	65	
3	158	42	63	
3	159	19	146	
3	160	23	92	
3	245	23	160	
3	161	14	100	
3	173	162	2	
3	225	163	5	
3	244	164	18	
3	178	165	0	
3	166	6	104	
3	167	20	66	
3	168	15	83	
3	216	41	169	
3	211	169	105	
3	170	21	152	
3	171	52	145	
3	172	16	134	
3	173	49	84	
3	174	68	76	
3	174	90	68	
3	175	31	22	
3	177	31	175	
3	176	37	100	
3	223	37	176	
3	177	93	113	
3	231	177	175	
3	178	54	85	
3	179	53	88	
3	180	1	179	
3	181	8	101	
3	182	58	102	
3	183	3	182	
3	184	57	118	
3	219	185	51	
3	186	60	131	
3	187	7	133	
3	241	188	17	
3	210	189	50	
3	190	59	143	
3	247	149	191	
3	199	192	64	
3	192	142	64	
3	193	62	86	
3	193	94	62	
3	214	40	194	
3	194	11	73	
3	195	69	111	
3	228	69	195	
3	250	114	196	
3	197	196	123	
3	246	197	34	
3	197	123	34	
3	198	9	132	
3	198	72	9	
3	199	64	24	
3	199	108	192	
3	232	106	200	
3	200	141	96	
3	201	10	26	
3	201	109	10	
3	202	107	142	
3	202	128	107	
3	234	44	203	
3	203	128	202	
3	249	109	204	
3	230	35	204	
3	205	105	39	
3	205	135	105	
3	206	41	143	
3	206	102	41	
3	207	93	76	
3	219	207	129	
3	236	208	25	
3	208	95	25	
3	209	122	175	
3	209	124	122	
3	210	46	140	
3	210	88	46	
3	211	70	27	
3	211	135	70	
3	212	69	144	
3	212	111	69	
3	213	111	141	
3	213	79	111	
3	245	214	73	
3	214	194	73	
3	215	40	30	
3	215	194	40	
3	216	27	77	
3	216	169	27	
3	217	71	200	
3	217	92	71	
3	218	24	64	
3	218	145	24	
3	219	93	207	
3	219	136	93	
3	220	60	168	
3	220	131	60	
3	221	79	204	
3	221	126	79	
3	222	78	90	
3	222	84	78	
3	223	90	174	
3	223	176	90	
3	224	9	95	
3	224	132	9	
3	225	113	136	
3	225	149	113	
3	226	30	85	
3	226	193	30	
3	227	13	36	
3	227	123	13	
3	228	82	124	
3	228	195	82	
3	229	34	98	
3	246	34	229	
3	230	79	213	
3	230	204	79	
3	231	76	93	
3	236	76	231	
3	232	96	33	
3	232	200	96	
3	233	74	148	
3	233	149	74	
3	234	26	10	
3	234	203	26	
3	235	28	121	
3	235	89	28	
3	236	122	208	
3	236	231	122	
3	237	77	152	
3	237	143	77	
3	238	37	25	
3	238	120	37	
3	239	120	151	
3	239	99	120	
3	240	46	67	
3	240	128	46	
3	241	67	138	
3	241	80	67	
3	242	72	199	
3	242	103	72	
3	243	103	133	
3	243	151	103	
3	244	62	94	
3	244	98	62	
3	245	87	214	
3	245	160	87	
3	246	101	197	
3	246	229	101	
3	247	61	150	
3	247	191	61	
3	248	38	12	
3	248	104	38	
3	249	35	114	
3	249	204	35	
3	250	43	10	
3	250	196	43	
3	251	125	126	
3	251	108	125	

CELL_TYPES	438
5
5
5
5
5
5
5
5
5
5
5
5
5
5
5
5
5
5
5
5
5
5
5
5
5
5
5
5
5
5
5
5
5
5
5
5
5
5
5
5
5
5
5
5
5
5
5
5
5
5
5
5
5
5
5
5
5
5
5
5
5
5
5
5
5
5
5
5
5
5
5
5
5
5
5
5
5
5
5
5
5
5
5
5
5
5
5
5
5
5
5
5
5
5
5
5
5
5
5
5
5
5
5
5
5
5
5
5
5
5
5
5
5
5
5
5
5
5
5
5
5
5
5
5
5
5
5
5
5
5
5
5
5
5
5
5
5
5
5
5
5
5
5
5
5
5
5
5
5
5
5
5
5
5
5
5
5
5
5
5
5
5
5
5
5
5
5
5
5
5
5
5
5
5
5
5
5
5
5
5
5
5
5
5
5
5
5
5
5
5
5
5
5
5
5
5
5
5
5
5
5
5
5
5
5
5
5
5
5
5
5
5
5
5
5
5
5
5
5
5
5
5
5
5
5
5
5
5
5
5
5
5
5
5
5
5
5
5
5
5
5
5
5
5
5
5
5
5
5
5
5
5
5
5
5
5
5
5
5
5
5
5
5
5
5
5
5
5
5
5
5
5
5
5
5
5
5
5
5
5
5
5
5
5
5
5
5
5
5
5
5
5
5
5
5
5
5
5
5
5
5
5
5
5
5
5
5
5
5
5
5
5
5
5
5
5
5
5
5
5
5
5
5
5
5
5
5
5
5
5
5
5
5
5
5
5
5
5
5
5
5
5
5
5
5
5
5
5
5
5
5
5
5
5
5
5
5
5
5
5
5
5
5
5
5
5
5
5
5
5
5
5
5
5
5
5
5
5
5
5
5
5
5
5
5
5
5
5
5
5
5
5
5
5
5
5
5
5
5
5
5
5
5
5
5
5
5
5
5
5
5
5
5
5
5
5
5
5
5
5
5
5
5
5
5
5
5
5
5
5
5
5
5
5
5
5
5
5

POINT_DATA	252
SCALARS T float
LOOKUP_TABLE default
300
0
0
300
179.931
148.673
300
0
148.671
67.808
130.411
214.637
241.151
178.301
0
74.0626
74.0613
0
224.061
300
300
224.063
144.033
227.893
44.5971
71.3056
102.645
226.409
186.309
118.072
261.628
147.564
19.0382
191.545
198.27
162.476
199.924
44.8797
259.426
275.885
263.278
260.252
300
150.444
113.167
203.02
41.5555
0
0
36.9922
36.9931
111.274
0
0
261.992
300
186.276
300
300
261.992
111.275
186.273
226.412
279.288
58.5535
19.5661
276.229
32.4487
70.849
146.436
215.254
213.381
73.6338
226.347
177.033
97.4185
87.6038
231.712
48.7229
145.316
20.153
102.848
113.699
86.7942
22.7593
274.303
235.895
260.54
20.0619
171.068
52.5465
204.599
236.349
110.756
248.588
73.8512
181.43
21.4932
212.07
23.617
17.8597
164.174
281.965
49.1511
282.484
258.978
215.339
58.6834
92.4704
129.637
180.15
160.925
283.687
138.009
151.843
279.283
138.334
280.47
291.27
41.2491
49.396
204.95
109.383
191.719
123.846
97.1963
121.313
282.322
67.4707
82.7035
281.414
124.492
90.075
23.522
66.3636
237.245
121.916
219.557
13.4254
283.648
60.6978
187.042
80.6171
249.219
166.358
17.8113
285.401
129.231
168.056
161.211
185.342
42.19
209.56
0
205.147
300
213.373
0
300
300
254.538
0
0
129.948
243.012
300
300
300
92.6479
250.264
205.15
0
55.5128
18.4914
67.3987
127.086
37.5205
126.485
280.991
0
18.4908
167.449
300
280.991
300
92.6463
129.953
0
0
55.5136
243.013
167.448
80.4937
246.026
239.299
136.268
166.202
175.344
82.1726
68.0837
202.775
116.377
80.6806
94.0858
141.784
255.211
266.881
90.7029
89.0332
126.079
38.8777
237.62
163.78
166.458
245.701
250.021
242.154
221.79
36.4668
101.654
105.664
131.614
36.1132
54.7245
82.2824
139.939
257.634
196.138
130.055
187.802
159.18
109.083
197.765
158.363
113.897
193.812
93.27
231.505
59.8532
33.6895
50.0349
13.2039
58.862
33.6046
230.822
239.087
181.39
175.063
262.826
146.428
149.717
107.256
