# vtk DataFile Version 4.1
vtk output
ASCII
DATASET UNSTRUCTURED_GRID

POINTS	25	float
0	0	0	
1	0	0	
2	0	0	
3	0	0	
4	0	0	
0	1	0	
1	1	0	
2	1	0	
3	1	0	
4	1	0	
0	2	0	
1	2	0	
2	2	0	
3	2	0	
4	2	0	
0	3	0	
1	3	0	
2	3	0	
3	3	0	
4	3	0	
0	4	0	
1	4	0	
2	4	0	
3	4	0	
4	4	0	

CELLS 16	80
4	0	1	6	5	
4	1	2	7	6	
4	2	3	8	7	
4	3	4	9	8	
4	5	6	11	10	
4	6	7	12	11	
4	7	8	13	12	
4	8	9	14	13	
4	10	11	16	15	
4	11	12	17	16	
4	12	13	18	17	
4	13	14	19	18	
4	15	16	21	20	
4	16	17	22	21	
4	17	18	23	22	
4	18	19	24	23	

CELL_TYPES	16
5
5
5
5
5
5
5
5
5
5
5
5
5
5
5
5

POINT_DATA	25
SCALARS T float
LOOKUP_TABLE default
100.064
100.036
100.072
100.077
100.081
0.063908
63.9248
72.3225
80.7403
80.7369
0.043749
27.7779
55.5189
61.3987
67.2887
0.0235699
23.5733
38.7018
53.837
53.8337
0.0235733
19.3627
38.7052
46.2677
53.837
