# vtk DataFile Version 4.1
vtk output
ASCII
DATASET UNSTRUCTURED_GRID

POINTS	8	float
0	0	0	
5	0	0	
10	0	0	
15	0	0	
15	5	0	
10	5	0	
5	5	0	
0	5	0	

CELLS 3	15
4	0	1	6	7	
4	1	2	5	6	
4	2	3	4	5	

CELL_TYPES	3
5
5
5

POINT_DATA	8
VECTORS u float
-8.46064e-030	3.73604e-029	-2.97143e-014	
-1.32653e-020	7.89985e-020	-0.00375007	
1.82535e-019	1.45348e-019	-0.0163904	
1.75979e-019	-2.78003e-019	-0.0334854	
-2.94419e-019	-6.31443e-020	-0.0335065	
-1.49668e-019	1.4486e-019	-0.0164109	
1.02029e-021	-9.72651e-020	-0.00375877	
-8.21999e-030	-3.75929e-029	-2.97143e-014	
