# vtk DataFile Version 4.1
vtk output
ASCII
DATASET UNSTRUCTURED_GRID

POINTS	8	float
0	0	0	
5	0	0	
10	0	0	
15	0	0	
15	5	0	
10	5	0	
5	5	0	
0	5	0	

CELLS 3	15
4	0	1	6	7	
4	1	2	5	6	
4	2	3	4	5	

CELL_TYPES	3
9
9
9

POINT_DATA	8
VECTORS u float
0	0	0	
0	0	-0.0360114	
0	0	-0.129166	
0	0	-0.250891	
0	0	-0.250891	
0	0	-0.129166	
0	0	-0.0360114	
0	0	0	
