# vtk DataFile Version 4.1
vtk output
ASCII
DATASET UNSTRUCTURED_GRID

POINTS	8	float
0	0	0	
0	5	0	
5	0	0	
5	5	0	
10	0	0	
10	5	0	
15	0	0	
15	5	0	

CELLS 3	15
4	0	2	3	1	
4	2	4	5	3	
4	4	6	7	5	

CELL_TYPES	3
9
9
9

POINT_DATA	8
VECTORS u float
0	0	0	
0	0	0	
0	0	-0.360114	
0	0	-0.360114	
0	0	-1.29166	
0	0	-1.29166	
0	0	-2.50891	
0	0	-2.50891	
VECTORS theta float
0	0	0	
0	0	0	
-2.45553	8.18511	0	
2.45553	8.18511	0	
0.982213	13.0962	0	
-0.982213	13.0962	0	
-1.47332	14.7332	0	
1.47332	14.7332	0	
