# vtk DataFile Version 4.1
vtk output
ASCII
DATASET UNSTRUCTURED_GRID

POINTS	8	float
0	0	0	
0	5	0	
5	0	0	
5	5	0	
10	0	0	
10	5	0	
15	0	0	
15	5	0	

CELLS 3	15
4	0	2	3	1	
4	2	4	5	3	
4	4	6	7	5	

CELL_TYPES	3
9
9
9

POINT_DATA	8
VECTORS u float
0	0	0	
0	0	0	
0	0	-0.0360114	
0	0	-0.0360114	
0	0	-0.129166	
0	0	-0.129166	
0	0	-0.250891	
0	0	-0.250891	
VECTORS theta float
0	0	0	
0	0	0	
-0.818511	0.245553	0	
-0.818511	-0.245553	0	
-1.30962	-0.0982213	0	
-1.30962	0.0982213	0	
-1.47332	0.147332	0	
-1.47332	-0.147332	0	
