# vtk DataFile Version 4.1
vtk output
ASCII
DATASET UNSTRUCTURED_GRID

POINTS	14721	float
0	0	0	
0	1.25	0	
0	2.5	0	
0	3.75	0	
0	5	0	
0	6.25	0	
0	7.5	0	
0	8.75	0	
0	10	0	
0	11.25	0	
0	12.5	0	
0	13.75	0	
0	15	0	
0	16.25	0	
0	17.5	0	
0	18.75	0	
0	20	0	
0	21.25	0	
0	22.5	0	
0	23.75	0	
0	25	0	
0	26.25	0	
0	27.5	0	
0	28.75	0	
0	30	0	
0	31.25	0	
0	32.5	0	
0	33.75	0	
0	35	0	
0	36.25	0	
0	37.5	0	
0	38.75	0	
0	40	0	
0	41.25	0	
0	42.5	0	
0	43.75	0	
0	45	0	
0	46.25	0	
0	47.5	0	
0	48.75	0	
0	50	0	
1.25	0	0	
1.25	1.25	0	
1.25	2.5	0	
1.25	3.75	0	
1.25	5	0	
1.25	6.25	0	
1.25	7.5	0	
1.25	8.75	0	
1.25	10	0	
1.25	11.25	0	
1.25	12.5	0	
1.25	13.75	0	
1.25	15	0	
1.25	16.25	0	
1.25	17.5	0	
1.25	18.75	0	
1.25	20	0	
1.25	21.25	0	
1.25	22.5	0	
1.25	23.75	0	
1.25	25	0	
1.25	26.25	0	
1.25	27.5	0	
1.25	28.75	0	
1.25	30	0	
1.25	31.25	0	
1.25	32.5	0	
1.25	33.75	0	
1.25	35	0	
1.25	36.25	0	
1.25	37.5	0	
1.25	38.75	0	
1.25	40	0	
1.25	41.25	0	
1.25	42.5	0	
1.25	43.75	0	
1.25	45	0	
1.25	46.25	0	
1.25	47.5	0	
1.25	48.75	0	
1.25	50	0	
2.5	0	0	
2.5	1.25	0	
2.5	2.5	0	
2.5	3.75	0	
2.5	5	0	
2.5	6.25	0	
2.5	7.5	0	
2.5	8.75	0	
2.5	10	0	
2.5	11.25	0	
2.5	12.5	0	
2.5	13.75	0	
2.5	15	0	
2.5	16.25	0	
2.5	17.5	0	
2.5	18.75	0	
2.5	20	0	
2.5	21.25	0	
2.5	22.5	0	
2.5	23.75	0	
2.5	25	0	
2.5	26.25	0	
2.5	27.5	0	
2.5	28.75	0	
2.5	30	0	
2.5	31.25	0	
2.5	32.5	0	
2.5	33.75	0	
2.5	35	0	
2.5	36.25	0	
2.5	37.5	0	
2.5	38.75	0	
2.5	40	0	
2.5	41.25	0	
2.5	42.5	0	
2.5	43.75	0	
2.5	45	0	
2.5	46.25	0	
2.5	47.5	0	
2.5	48.75	0	
2.5	50	0	
3.75	0	0	
3.75	1.25	0	
3.75	2.5	0	
3.75	3.75	0	
3.75	5	0	
3.75	6.25	0	
3.75	7.5	0	
3.75	8.75	0	
3.75	10	0	
3.75	11.25	0	
3.75	12.5	0	
3.75	13.75	0	
3.75	15	0	
3.75	16.25	0	
3.75	17.5	0	
3.75	18.75	0	
3.75	20	0	
3.75	21.25	0	
3.75	22.5	0	
3.75	23.75	0	
3.75	25	0	
3.75	26.25	0	
3.75	27.5	0	
3.75	28.75	0	
3.75	30	0	
3.75	31.25	0	
3.75	32.5	0	
3.75	33.75	0	
3.75	35	0	
3.75	36.25	0	
3.75	37.5	0	
3.75	38.75	0	
3.75	40	0	
3.75	41.25	0	
3.75	42.5	0	
3.75	43.75	0	
3.75	45	0	
3.75	46.25	0	
3.75	47.5	0	
3.75	48.75	0	
3.75	50	0	
5	0	0	
5	1.25	0	
5	2.5	0	
5	3.75	0	
5	5	0	
5	6.25	0	
5	7.5	0	
5	8.75	0	
5	10	0	
5	11.25	0	
5	12.5	0	
5	13.75	0	
5	15	0	
5	16.25	0	
5	17.5	0	
5	18.75	0	
5	20	0	
5	21.25	0	
5	22.5	0	
5	23.75	0	
5	25	0	
5	26.25	0	
5	27.5	0	
5	28.75	0	
5	30	0	
5	31.25	0	
5	32.5	0	
5	33.75	0	
5	35	0	
5	36.25	0	
5	37.5	0	
5	38.75	0	
5	40	0	
5	41.25	0	
5	42.5	0	
5	43.75	0	
5	45	0	
5	46.25	0	
5	47.5	0	
5	48.75	0	
5	50	0	
6.25	0	0	
6.25	1.25	0	
6.25	2.5	0	
6.25	3.75	0	
6.25	5	0	
6.25	6.25	0	
6.25	7.5	0	
6.25	8.75	0	
6.25	10	0	
6.25	11.25	0	
6.25	12.5	0	
6.25	13.75	0	
6.25	15	0	
6.25	16.25	0	
6.25	17.5	0	
6.25	18.75	0	
6.25	20	0	
6.25	21.25	0	
6.25	22.5	0	
6.25	23.75	0	
6.25	25	0	
6.25	26.25	0	
6.25	27.5	0	
6.25	28.75	0	
6.25	30	0	
6.25	31.25	0	
6.25	32.5	0	
6.25	33.75	0	
6.25	35	0	
6.25	36.25	0	
6.25	37.5	0	
6.25	38.75	0	
6.25	40	0	
6.25	41.25	0	
6.25	42.5	0	
6.25	43.75	0	
6.25	45	0	
6.25	46.25	0	
6.25	47.5	0	
6.25	48.75	0	
6.25	50	0	
7.5	0	0	
7.5	1.25	0	
7.5	2.5	0	
7.5	3.75	0	
7.5	5	0	
7.5	6.25	0	
7.5	7.5	0	
7.5	8.75	0	
7.5	10	0	
7.5	11.25	0	
7.5	12.5	0	
7.5	13.75	0	
7.5	15	0	
7.5	16.25	0	
7.5	17.5	0	
7.5	18.75	0	
7.5	20	0	
7.5	21.25	0	
7.5	22.5	0	
7.5	23.75	0	
7.5	25	0	
7.5	26.25	0	
7.5	27.5	0	
7.5	28.75	0	
7.5	30	0	
7.5	31.25	0	
7.5	32.5	0	
7.5	33.75	0	
7.5	35	0	
7.5	36.25	0	
7.5	37.5	0	
7.5	38.75	0	
7.5	40	0	
7.5	41.25	0	
7.5	42.5	0	
7.5	43.75	0	
7.5	45	0	
7.5	46.25	0	
7.5	47.5	0	
7.5	48.75	0	
7.5	50	0	
8.75	0	0	
8.75	1.25	0	
8.75	2.5	0	
8.75	3.75	0	
8.75	5	0	
8.75	6.25	0	
8.75	7.5	0	
8.75	8.75	0	
8.75	10	0	
8.75	11.25	0	
8.75	12.5	0	
8.75	13.75	0	
8.75	15	0	
8.75	16.25	0	
8.75	17.5	0	
8.75	18.75	0	
8.75	20	0	
8.75	21.25	0	
8.75	22.5	0	
8.75	23.75	0	
8.75	25	0	
8.75	26.25	0	
8.75	27.5	0	
8.75	28.75	0	
8.75	30	0	
8.75	31.25	0	
8.75	32.5	0	
8.75	33.75	0	
8.75	35	0	
8.75	36.25	0	
8.75	37.5	0	
8.75	38.75	0	
8.75	40	0	
8.75	41.25	0	
8.75	42.5	0	
8.75	43.75	0	
8.75	45	0	
8.75	46.25	0	
8.75	47.5	0	
8.75	48.75	0	
8.75	50	0	
10	0	0	
10	1.25	0	
10	2.5	0	
10	3.75	0	
10	5	0	
10	6.25	0	
10	7.5	0	
10	8.75	0	
10	10	0	
10	11.25	0	
10	12.5	0	
10	13.75	0	
10	15	0	
10	16.25	0	
10	17.5	0	
10	18.75	0	
10	20	0	
10	21.25	0	
10	22.5	0	
10	23.75	0	
10	25	0	
10	26.25	0	
10	27.5	0	
10	28.75	0	
10	30	0	
10	31.25	0	
10	32.5	0	
10	33.75	0	
10	35	0	
10	36.25	0	
10	37.5	0	
10	38.75	0	
10	40	0	
10	41.25	0	
10	42.5	0	
10	43.75	0	
10	45	0	
10	46.25	0	
10	47.5	0	
10	48.75	0	
10	50	0	
11.25	0	0	
11.25	1.25	0	
11.25	2.5	0	
11.25	3.75	0	
11.25	5	0	
11.25	6.25	0	
11.25	7.5	0	
11.25	8.75	0	
11.25	10	0	
11.25	11.25	0	
11.25	12.5	0	
11.25	13.75	0	
11.25	15	0	
11.25	16.25	0	
11.25	17.5	0	
11.25	18.75	0	
11.25	20	0	
11.25	21.25	0	
11.25	22.5	0	
11.25	23.75	0	
11.25	25	0	
11.25	26.25	0	
11.25	27.5	0	
11.25	28.75	0	
11.25	30	0	
11.25	31.25	0	
11.25	32.5	0	
11.25	33.75	0	
11.25	35	0	
11.25	36.25	0	
11.25	37.5	0	
11.25	38.75	0	
11.25	40	0	
11.25	41.25	0	
11.25	42.5	0	
11.25	43.75	0	
11.25	45	0	
11.25	46.25	0	
11.25	47.5	0	
11.25	48.75	0	
11.25	50	0	
12.5	0	0	
12.5	1.25	0	
12.5	2.5	0	
12.5	3.75	0	
12.5	5	0	
12.5	6.25	0	
12.5	7.5	0	
12.5	8.75	0	
12.5	10	0	
12.5	11.25	0	
12.5	12.5	0	
12.5	13.75	0	
12.5	15	0	
12.5	16.25	0	
12.5	17.5	0	
12.5	18.75	0	
12.5	20	0	
12.5	21.25	0	
12.5	22.5	0	
12.5	23.75	0	
12.5	25	0	
12.5	26.25	0	
12.5	27.5	0	
12.5	28.75	0	
12.5	30	0	
12.5	31.25	0	
12.5	32.5	0	
12.5	33.75	0	
12.5	35	0	
12.5	36.25	0	
12.5	37.5	0	
12.5	38.75	0	
12.5	40	0	
12.5	41.25	0	
12.5	42.5	0	
12.5	43.75	0	
12.5	45	0	
12.5	46.25	0	
12.5	47.5	0	
12.5	48.75	0	
12.5	50	0	
13.75	0	0	
13.75	1.25	0	
13.75	2.5	0	
13.75	3.75	0	
13.75	5	0	
13.75	6.25	0	
13.75	7.5	0	
13.75	8.75	0	
13.75	10	0	
13.75	11.25	0	
13.75	12.5	0	
13.75	13.75	0	
13.75	15	0	
13.75	16.25	0	
13.75	17.5	0	
13.75	18.75	0	
13.75	20	0	
13.75	21.25	0	
13.75	22.5	0	
13.75	23.75	0	
13.75	25	0	
13.75	26.25	0	
13.75	27.5	0	
13.75	28.75	0	
13.75	30	0	
13.75	31.25	0	
13.75	32.5	0	
13.75	33.75	0	
13.75	35	0	
13.75	36.25	0	
13.75	37.5	0	
13.75	38.75	0	
13.75	40	0	
13.75	41.25	0	
13.75	42.5	0	
13.75	43.75	0	
13.75	45	0	
13.75	46.25	0	
13.75	47.5	0	
13.75	48.75	0	
13.75	50	0	
15	0	0	
15	1.25	0	
15	2.5	0	
15	3.75	0	
15	5	0	
15	6.25	0	
15	7.5	0	
15	8.75	0	
15	10	0	
15	11.25	0	
15	12.5	0	
15	13.75	0	
15	15	0	
15	16.25	0	
15	17.5	0	
15	18.75	0	
15	20	0	
15	21.25	0	
15	22.5	0	
15	23.75	0	
15	25	0	
15	26.25	0	
15	27.5	0	
15	28.75	0	
15	30	0	
15	31.25	0	
15	32.5	0	
15	33.75	0	
15	35	0	
15	36.25	0	
15	37.5	0	
15	38.75	0	
15	40	0	
15	41.25	0	
15	42.5	0	
15	43.75	0	
15	45	0	
15	46.25	0	
15	47.5	0	
15	48.75	0	
15	50	0	
16.25	0	0	
16.25	1.25	0	
16.25	2.5	0	
16.25	3.75	0	
16.25	5	0	
16.25	6.25	0	
16.25	7.5	0	
16.25	8.75	0	
16.25	10	0	
16.25	11.25	0	
16.25	12.5	0	
16.25	13.75	0	
16.25	15	0	
16.25	16.25	0	
16.25	17.5	0	
16.25	18.75	0	
16.25	20	0	
16.25	21.25	0	
16.25	22.5	0	
16.25	23.75	0	
16.25	25	0	
16.25	26.25	0	
16.25	27.5	0	
16.25	28.75	0	
16.25	30	0	
16.25	31.25	0	
16.25	32.5	0	
16.25	33.75	0	
16.25	35	0	
16.25	36.25	0	
16.25	37.5	0	
16.25	38.75	0	
16.25	40	0	
16.25	41.25	0	
16.25	42.5	0	
16.25	43.75	0	
16.25	45	0	
16.25	46.25	0	
16.25	47.5	0	
16.25	48.75	0	
16.25	50	0	
17.5	0	0	
17.5	1.25	0	
17.5	2.5	0	
17.5	3.75	0	
17.5	5	0	
17.5	6.25	0	
17.5	7.5	0	
17.5	8.75	0	
17.5	10	0	
17.5	11.25	0	
17.5	12.5	0	
17.5	13.75	0	
17.5	15	0	
17.5	16.25	0	
17.5	17.5	0	
17.5	18.75	0	
17.5	20	0	
17.5	21.25	0	
17.5	22.5	0	
17.5	23.75	0	
17.5	25	0	
17.5	26.25	0	
17.5	27.5	0	
17.5	28.75	0	
17.5	30	0	
17.5	31.25	0	
17.5	32.5	0	
17.5	33.75	0	
17.5	35	0	
17.5	36.25	0	
17.5	37.5	0	
17.5	38.75	0	
17.5	40	0	
17.5	41.25	0	
17.5	42.5	0	
17.5	43.75	0	
17.5	45	0	
17.5	46.25	0	
17.5	47.5	0	
17.5	48.75	0	
17.5	50	0	
18.75	0	0	
18.75	1.25	0	
18.75	2.5	0	
18.75	3.75	0	
18.75	5	0	
18.75	6.25	0	
18.75	7.5	0	
18.75	8.75	0	
18.75	10	0	
18.75	11.25	0	
18.75	12.5	0	
18.75	13.75	0	
18.75	15	0	
18.75	16.25	0	
18.75	17.5	0	
18.75	18.75	0	
18.75	20	0	
18.75	21.25	0	
18.75	22.5	0	
18.75	23.75	0	
18.75	25	0	
18.75	26.25	0	
18.75	27.5	0	
18.75	28.75	0	
18.75	30	0	
18.75	31.25	0	
18.75	32.5	0	
18.75	33.75	0	
18.75	35	0	
18.75	36.25	0	
18.75	37.5	0	
18.75	38.75	0	
18.75	40	0	
18.75	41.25	0	
18.75	42.5	0	
18.75	43.75	0	
18.75	45	0	
18.75	46.25	0	
18.75	47.5	0	
18.75	48.75	0	
18.75	50	0	
20	0	0	
20	1.25	0	
20	2.5	0	
20	3.75	0	
20	5	0	
20	6.25	0	
20	7.5	0	
20	8.75	0	
20	10	0	
20	11.25	0	
20	12.5	0	
20	13.75	0	
20	15	0	
20	16.25	0	
20	17.5	0	
20	18.75	0	
20	20	0	
20	21.25	0	
20	22.5	0	
20	23.75	0	
20	25	0	
20	26.25	0	
20	27.5	0	
20	28.75	0	
20	30	0	
20	31.25	0	
20	32.5	0	
20	33.75	0	
20	35	0	
20	36.25	0	
20	37.5	0	
20	38.75	0	
20	40	0	
20	41.25	0	
20	42.5	0	
20	43.75	0	
20	45	0	
20	46.25	0	
20	47.5	0	
20	48.75	0	
20	50	0	
21.25	0	0	
21.25	1.25	0	
21.25	2.5	0	
21.25	3.75	0	
21.25	5	0	
21.25	6.25	0	
21.25	7.5	0	
21.25	8.75	0	
21.25	10	0	
21.25	11.25	0	
21.25	12.5	0	
21.25	13.75	0	
21.25	15	0	
21.25	16.25	0	
21.25	17.5	0	
21.25	18.75	0	
21.25	20	0	
21.25	21.25	0	
21.25	22.5	0	
21.25	23.75	0	
21.25	25	0	
21.25	26.25	0	
21.25	27.5	0	
21.25	28.75	0	
21.25	30	0	
21.25	31.25	0	
21.25	32.5	0	
21.25	33.75	0	
21.25	35	0	
21.25	36.25	0	
21.25	37.5	0	
21.25	38.75	0	
21.25	40	0	
21.25	41.25	0	
21.25	42.5	0	
21.25	43.75	0	
21.25	45	0	
21.25	46.25	0	
21.25	47.5	0	
21.25	48.75	0	
21.25	50	0	
22.5	0	0	
22.5	1.25	0	
22.5	2.5	0	
22.5	3.75	0	
22.5	5	0	
22.5	6.25	0	
22.5	7.5	0	
22.5	8.75	0	
22.5	10	0	
22.5	11.25	0	
22.5	12.5	0	
22.5	13.75	0	
22.5	15	0	
22.5	16.25	0	
22.5	17.5	0	
22.5	18.75	0	
22.5	20	0	
22.5	21.25	0	
22.5	22.5	0	
22.5	23.75	0	
22.5	25	0	
22.5	26.25	0	
22.5	27.5	0	
22.5	28.75	0	
22.5	30	0	
22.5	31.25	0	
22.5	32.5	0	
22.5	33.75	0	
22.5	35	0	
22.5	36.25	0	
22.5	37.5	0	
22.5	38.75	0	
22.5	40	0	
22.5	41.25	0	
22.5	42.5	0	
22.5	43.75	0	
22.5	45	0	
22.5	46.25	0	
22.5	47.5	0	
22.5	48.75	0	
22.5	50	0	
23.75	0	0	
23.75	1.25	0	
23.75	2.5	0	
23.75	3.75	0	
23.75	5	0	
23.75	6.25	0	
23.75	7.5	0	
23.75	8.75	0	
23.75	10	0	
23.75	11.25	0	
23.75	12.5	0	
23.75	13.75	0	
23.75	15	0	
23.75	16.25	0	
23.75	17.5	0	
23.75	18.75	0	
23.75	20	0	
23.75	21.25	0	
23.75	22.5	0	
23.75	23.75	0	
23.75	25	0	
23.75	26.25	0	
23.75	27.5	0	
23.75	28.75	0	
23.75	30	0	
[...]
POINT_DATA	14721
VECTORS u float
2.86959e-017	-0.000606281	0	
2.8658e-017	-0.000606952	0	
2.86163e-017	-0.000607622	0	
2.85738e-017	-0.000608291	0	
7.44964e-018	-0.000611305	0	
8.22036e-018	-0.000614439	0	
9.04372e-018	-0.000617643	0	
9.67535e-018	-0.000620899	0	
1.01834e-017	-0.000624196	0	
1.0597e-017	-0.00062753	0	
1.0865e-017	-0.000630898	0	
1.09321e-017	-0.000634296	0	
1.0744e-017	-0.000637721	0	
1.05349e-017	-0.000641175	0	
1.02614e-017	-0.000644652	0	
9.80644e-018	-0.000648151	0	
9.28093e-018	-0.000651669	0	
8.45963e-018	-0.000655205	0	
7.59466e-018	-0.000658758	0	
6.60417e-018	-0.00066232	0	
5.42881e-018	-0.000665896	0	
4.0436e-018	-0.000669478	0	
2.41871e-018	-0.000673073	0	
8.92338e-019	-0.000676673	0	
-8.83e-019	-0.000680278	0	
-2.78606e-018	-0.000683888	0	
-4.95572e-018	-0.0006875	0	
-7.29759e-018	-0.000691116	0	
-9.83225e-018	-0.000694732	0	
-1.2606e-017	-0.000698348	0	
-1.55799e-017	-0.000701961	0	
-1.88128e-017	-0.000705564	0	
-2.24429e-017	-0.000709151	0	
-2.63372e-017	-0.000712712	0	
-3.05883e-017	-0.000716233	0	
-3.52785e-017	-0.000719694	0	
-6.91065e-018	-0.000723064	0	
-1.41938e-017	-0.000722817	0	
-2.1477e-017	-0.0007224	0	
-2.87607e-017	-0.000721812	0	
-3.60439e-017	-0.000721054	0	
1.56689e-006	-0.00060628	0	
1.56466e-006	-0.000606951	0	
1.56243e-006	-0.000607621	0	
1.5602e-006	-0.00060829	0	
1.64922e-006	-0.000611301	0	
1.72583e-006	-0.000614431	0	
1.78846e-006	-0.000617631	0	
1.83751e-006	-0.000620882	0	
1.87632e-006	-0.000624176	0	
1.90656e-006	-0.000627505	0	
1.92966e-006	-0.000630869	0	
1.94496e-006	-0.000634262	0	
1.95431e-006	-0.000637684	0	
1.95603e-006	-0.000641132	0	
1.95227e-006	-0.000644605	0	
1.94055e-006	-0.000648099	0	
1.92172e-006	-0.000651612	0	
1.89514e-006	-0.000655142	0	
1.86213e-006	-0.000658686	0	
1.82143e-006	-0.000662245	0	
1.77345e-006	-0.00066581	0	
1.71819e-006	-0.00066939	0	
1.65454e-006	-0.000672975	0	
1.58408e-006	-0.000676569	0	
1.50626e-006	-0.000680167	0	
1.4201e-006	-0.00068377	0	
1.32574e-006	-0.000687376	0	
1.22174e-006	-0.000690985	0	
1.11021e-006	-0.000694594	0	
9.86754e-007	-0.000698203	0	
8.50455e-007	-0.000701807	0	
7.00634e-007	-0.000705403	0	
5.32056e-007	-0.000708981	0	
3.43836e-007	-0.000712534	0	
1.31307e-007	-0.000716047	0	
-1.0733e-007	-0.000719502	0	
-3.7731e-007	-0.000722865	0	
-7.74983e-007	-0.000722618	0	
-1.17265e-006	-0.000722201	0	
-1.57032e-006	-0.000721613	0	
-1.968e-006	-0.000720855	0	
3.13378e-006	-0.000606276	0	
3.12932e-006	-0.000606947	0	
3.12485e-006	-0.000607617	0	
3.12039e-006	-0.000608286	0	
3.29755e-006	-0.000611288	0	
3.44934e-006	-0.000614407	0	
3.57462e-006	-0.000617595	0	
3.67336e-006	-0.000620834	0	
3.75001e-006	-0.000624114	0	
3.81056e-006	-0.000627432	0	
3.85496e-006	-0.000630782	0	
3.88669e-006	-0.000634163	0	
3.90422e-006	-0.000637572	0	
3.90936e-006	-0.000641007	0	
3.89994e-006	-0.000644464	0	
3.87663e-006	-0.000647943	0	
3.8365e-006	-0.000651439	0	
3.78416e-006	-0.00065495	0	
3.7159e-006	-0.000658476	0	
3.6349e-006	-0.000662012	0	
3.53895e-006	-0.000665562	0	
3.42865e-006	-0.000669117	0	
3.30412e-006	-0.000672685	0	
3.16194e-006	-0.000676256	0	
3.00561e-006	-0.000679835	0	
2.83386e-006	-0.000683417	0	
2.64351e-006	-0.000687004	0	
2.43828e-006	-0.00069059	0	
2.2121e-006	-0.000694179	0	
1.96649e-006	-0.000697764	0	
1.69535e-006	-0.000701346	0	
1.39406e-006	-0.000704916	0	
1.05978e-006	-0.000708472	0	
6.81992e-007	-0.000712001	0	
2.60149e-007	-0.000715491	0	
-2.17978e-007	-0.000718925	0	
-7.54622e-007	-0.000722269	0	
-1.54996e-006	-0.000722022	0	
-2.34531e-006	-0.000721604	0	
-3.14065e-006	-0.000721017	0	
-3.93599e-006	-0.000720258	0	
4.70067e-006	-0.000606271	0	
4.69397e-006	-0.000606942	0	
4.68728e-006	-0.000607612	0	
4.68058e-006	-0.000608281	0	
4.94268e-006	-0.000611267	0	
5.16908e-006	-0.000614367	0	
5.35421e-006	-0.000617535	0	
5.50268e-006	-0.000620753	0	
5.61843e-006	-0.000624013	0	
5.70651e-006	-0.00062731	0	
5.77358e-006	-0.000630639	0	
5.81938e-006	-0.000633998	0	
5.84612e-006	-0.000637385	0	
5.8511e-006	-0.000640795	0	
5.8364e-006	-0.000644228	0	
5.7983e-006	-0.00064768	0	
5.73941e-006	-0.000651148	0	
5.65681e-006	-0.000654629	0	
5.55659e-006	-0.000658123	0	
5.43294e-006	-0.000661628	0	
5.2897e-006	-0.000665142	0	
5.12511e-006	-0.000668668	0	
4.9371e-006	-0.000672199	0	
4.72708e-006	-0.000675739	0	
4.49235e-006	-0.000679281	0	
4.23288e-006	-0.000682831	0	
3.95117e-006	-0.00068638	0	
3.64004e-006	-0.000689934	0	
3.3038e-006	-0.000693483	0	
2.93359e-006	-0.000697032	0	
2.52637e-006	-0.000700574	0	
2.07798e-006	-0.000704106	0	
1.5757e-006	-0.000707622	0	
1.01511e-006	-0.000711112	0	
3.80996e-007	-0.000714565	0	
-3.29251e-007	-0.000717963	0	
-1.13193e-006	-0.000721274	0	
-2.32495e-006	-0.000721027	0	
-3.51796e-006	-0.00072061	0	
-4.71097e-006	-0.000720022	0	
-5.90398e-006	-0.000719264	0	
6.26756e-006	-0.000606263	0	
6.25863e-006	-0.000606934	0	
6.2497e-006	-0.000607604	0	
6.24078e-006	-0.000608273	0	
6.58581e-006	-0.000611236	0	
6.88121e-006	-0.000614311	0	
7.12607e-006	-0.000617452	0	
7.32325e-006	-0.000620642	0	
7.47664e-006	-0.000623874	0	
7.59462e-006	-0.000627141	0	
7.68186e-006	-0.000630441	0	
7.74214e-006	-0.000633769	0	
7.77475e-006	-0.000637124	0	
7.77974e-006	-0.000640502	0	
7.7549e-006	-0.000643898	0	
7.7035e-006	-0.000647312	0	
7.62041e-006	-0.00065074	0	
7.51161e-006	-0.00065418	0	
7.37253e-006	-0.00065763	0	
7.20998e-006	-0.00066109	0	
7.01725e-006	-0.000664559	0	
6.79759e-006	-0.000668037	0	
6.54954e-006	-0.000671523	0	
6.26903e-006	-0.000675013	0	
5.95778e-006	-0.000678509	0	
5.61452e-006	-0.000682008	0	
5.23526e-006	-0.00068551	0	
4.82516e-006	-0.00068901	0	
4.37348e-006	-0.000692509	0	
3.8815e-006	-0.000696003	0	
3.34107e-006	-0.000699491	0	
2.74228e-006	-0.000702968	0	
2.07895e-006	-0.000706429	0	
1.33169e-006	-0.000709866	0	
4.9556e-007	-0.000713267	0	
-4.4919e-007	-0.000716617	0	
-1.50924e-006	-0.000719883	0	
-3.09993e-006	-0.000719636	0	
-4.69061e-006	-0.000719218	0	
-6.2813e-006	-0.000718631	0	
-7.87198e-006	-0.000717872	0	
7.83444e-006	-0.000606253	0	
7.82329e-006	-0.000606924	0	
7.81213e-006	-0.000607594	0	
7.80097e-006	-0.000608263	0	
8.22324e-006	-0.000611197	0	
8.58781e-006	-0.000614241	0	
8.8888e-006	-0.000617348	0	
9.13181e-006	-0.000620503	0	
9.32336e-006	-0.000623698	0	
9.46909e-006	-0.000626929	0	
9.57655e-006	-0.00063019	0	
9.64865e-006	-0.00063348	0	
9.68607e-006	-0.000636793	0	
9.68749e-006	-0.000640126	0	
9.65388e-006	-0.000643477	0	
9.58302e-006	-0.000646841	0	
9.47835e-006	-0.000650218	0	
9.33535e-006	-0.000653605	0	
9.16294e-006	-0.000657	0	
8.9541e-006	-0.000660402	0	
8.71541e-006	-0.000663813	0	
8.44151e-006	-0.000667231	0	
8.13075e-006	-0.000670656	0	
7.78256e-006	-0.000674085	0	
7.39487e-006	-0.000677519	0	
6.96566e-006	-0.000680955	0	
6.49627e-006	-0.000684392	0	
5.97871e-006	-0.000687825	0	
5.41737e-006	-0.000691255	0	
4.80305e-006	-0.000694679	0	
4.12881e-006	-0.000698098	0	
3.38637e-006	-0.000701503	0	
2.55827e-006	-0.000704895	0	
1.63578e-006	-0.000708262	0	
5.96587e-007	-0.000711597	0	
-5.70866e-007	-0.000714885	0	
-1.88655e-006	-0.000718093	0	
-3.87491e-006	-0.000717846	0	
-5.86327e-006	-0.000717429	0	
-7.85162e-006	-0.000716841	0	
-9.83997e-006	-0.000716083	0	
9.40133e-006	-0.00060624	0	
9.38794e-006	-0.000606912	0	
9.37456e-006	-0.000607582	0	
9.36117e-006	-0.000608251	0	
9.85843e-006	-0.000611152	0	
1.02854e-005	-0.000614158	0	
1.06412e-005	-0.000617226	0	
1.09284e-005	-0.000620339	0	
1.11543e-005	-0.000623491	0	
1.1327e-005	-0.000626676	0	
1.14525e-005	-0.000629893	0	
1.15342e-005	-0.000633133	0	
1.15737e-005	-0.000636395	0	
1.15694e-005	-0.000639674	0	
1.15224e-005	-0.000642967	0	
1.14335e-005	-0.000646272	0	
1.12999e-005	-0.000649586	0	
1.11284e-005	-0.000652907	0	
1.09142e-005	-0.000656234	0	
1.0666e-005	-0.00065957	0	
1.03767e-005	-0.000662909	0	
1.00479e-005	-0.000666256	0	
9.67601e-006	-0.000669606	0	
9.25853e-006	-0.000672961	0	
8.79414e-006	-0.000676316	0	
8.28203e-006	-0.000679673	0	
7.71662e-006	-0.000683027	0	
7.10018e-006	-0.00068638	0	
6.42535e-006	-0.000689723	0	
5.69102e-006	-0.000693064	0	
4.88614e-006	-0.000696394	0	
3.99778e-006	-0.000699715	0	
3.01655e-006	-0.000703019	0	
1.91868e-006	-0.000706303	0	
6.8631e-007	-0.000709557	0	
-7.01299e-007	-0.000712768	0	
-2.26385e-006	-0.000715906	0	
-4.64989e-006	-0.000715659	0	
-7.03592e-006	-0.000715242	0	
-9.42195e-006	-0.000714654	0	
-1.1808e-005	-0.000713896	0	
1.09682e-005	-0.000606226	0	
1.09526e-005	-0.000606897	0	
1.0937e-005	-0.000607567	0	
1.09214e-005	-0.000608236	0	
1.14867e-005	-0.000611099	0	
1.19759e-005	-0.000614064	0	
1.23812e-005	-0.000617087	0	
1.27099e-005	-0.000620153	0	
1.29697e-005	-0.000623255	0	
1.31662e-005	-0.000626389	0	
1.33065e-005	-0.000629549	0	
1.33964e-005	-0.000632733	0	
1.34333e-005	-0.000635934	0	
1.34204e-005	-0.000639149	0	
1.33576e-005	-0.000642374	0	
1.32449e-005	-0.000645608	0	
1.30854e-005	-0.000648848	0	
1.28773e-005	-0.000652093	0	
1.26279e-005	-0.000655345	0	
1.23327e-005	-0.000658598	0	
1.19957e-005	-0.000661858	0	
1.16101e-005	-0.000665118	0	
1.11756e-005	-0.000668383	0	
1.06894e-005	-0.000671645	0	
1.01478e-005	-0.000674911	0	
9.54869e-006	-0.000678169	0	
8.89273e-006	-0.000681428	0	
8.17319e-006	-0.000684678	0	
7.39112e-006	-0.000687924	0	
6.53683e-006	-0.000691159	0	
5.60229e-006	-0.000694388	0	
4.57602e-006	-0.000697602	0	
3.44101e-006	-0.000700805	0	
2.17612e-006	-0.000703989	0	
7.57203e-007	-0.000707147	0	
-8.40263e-007	-0.000710268	0	
-2.64116e-006	-0.000713321	0	
-5.42487e-006	-0.000713074	0	
-8.20855e-006	-0.000712657	0	
-1.09923e-005	-0.000712069	0	
-1.3776e-005	-0.000711311	0	
1.25351e-005	-0.000606209	0	
1.25173e-005	-0.00060688	0	
1.24994e-005	-0.00060755	0	
1.24816e-005	-0.000608219	0	
1.31133e-005	-0.000611041	0	
1.36562e-005	-0.000613959	0	
1.41095e-005	-0.000616933	0	
1.44765e-005	-0.000619946	0	
1.47647e-005	-0.000622993	0	
1.4982e-005	-0.000626067	0	
1.51358e-005	-0.000629165	0	
1.52267e-005	-0.000632283	0	
1.52603e-005	-0.000635414	0	
1.52347e-005	-0.000638555	0	
1.51526e-005	-0.000641703	0	
1.50153e-005	-0.000644857	0	
1.48238e-005	-0.000648013	0	
1.45826e-005	-0.000651173	0	
1.42906e-005	-0.000654334	0	
1.39524e-005	-0.0006575	0	
1.35623e-005	-0.000660663	0	
1.31205e-005	-0.000663831	0	
1.26223e-005	-0.000666991	0	
1.20648e-005	-0.000670154	0	
1.14449e-005	-0.000673308	0	
1.07615e-005	-0.000676459	0	
1.00109e-005	-0.0006796	0	
9.19328e-006	-0.000682737	0	
8.30114e-006	-0.000685861	0	
7.3306e-006	-0.000688979	0	
6.27089e-006	-0.000692083	0	
5.10963e-006	-0.000695177	0	
3.82725e-006	-0.000698258	0	
2.4033e-006	-0.000701323	0	
8.07198e-007	-0.000704368	0	
-9.87602e-007	-0.000707383	0	
-3.01853e-006	-0.000710338	0	
-6.19983e-006	-0.000710091	0	
-9.38109e-006	-0.000709674	0	
-1.25626e-005	-0.000709087	0	
-1.5744e-005	-0.000708328	0	
1.4102e-005	-0.00060619	0	
1.40819e-005	-0.000606861	0	
1.40618e-005	-0.000607531	0	
1.40418e-005	-0.000608201	0	
1.47322e-005	-0.000610975	0	
1.53299e-005	-0.000613843	0	
1.58253e-005	-0.000616763	0	
1.62266e-005	-0.000619718	0	
1.65399e-005	-0.000622703	0	
1.67737e-005	-0.000625713	0	
1.69332e-005	-0.000628741	0	
1.70257e-005	-0.000631784	0	
1.70485e-005	-0.000634837	0	
1.70082e-005	-0.000637896	0	
1.69036e-005	-0.000640958	0	
1.67379e-005	-0.000644022	0	
1.65149e-005	-0.000647086	0	
1.62347e-005	-0.000650151	0	
1.59025e-005	-0.000653216	0	
1.55152e-005	-0.000656277	0	
1.5073e-005	-0.000659339	0	
1.4571e-005	-0.000662394	0	
1.40064e-005	-0.000665447	0	
1.33759e-005	-0.000668488	0	
1.26771e-005	-0.000671523	0	
1.19072e-005	-0.000674547	0	
1.10645e-005	-0.000677562	0	
1.01453e-005	-0.000680562	0	
9.14716e-006	-0.000683553	0	
8.06055e-006	-0.000686531	0	
6.87969e-006	-0.000689495	0	
5.58663e-006	-0.000692448	0	
4.16721e-006	-0.000695386	0	
2.59176e-006	-0.000698313	0	
8.33e-007	-0.000701225	0	
-1.15099e-006	-0.000704116	0	
-3.39611e-006	-0.000706958	0	
-6.97475e-006	-0.000706711	0	
-1.05534e-005	-0.000706294	0	
-1.41328e-005	-0.000705707	0	
-1.77123e-005	-0.000704948	0	
1.56689e-005	-0.000606169	0	
1.56466e-005	-0.00060684	0	
1.56243e-005	-0.00060751	0	
1.5602e-005	-0.000608179	0	
1.635e-005	-0.000610904	0	
1.6993e-005	-0.000613716	0	
1.75285e-005	-0.000616576	0	
1.79594e-005	-0.000619468	0	
1.82939e-005	-0.000622385	0	
1.8538e-005	-0.000625322	0	
1.87024e-005	-0.000628275	0	
1.87863e-005	-0.000631237	0	
1.87987e-005	-0.000634204	0	
1.87371e-005	-0.000637172	0	
1.86071e-005	-0.000640141	0	
1.8411e-005	-0.000643107	0	
1.81516e-005	-0.000646071	0	
1.78333e-005	-0.000649033	0	
1.74548e-005	-0.00065199	0	
1.70184e-005	-0.000654943	0	
1.65198e-005	-0.000657888	0	
1.59556e-005	-0.000660825	0	
1.53215e-005	-0.000663751	0	
1.46156e-005	-0.000666666	0	
1.3835e-005	-0.000669564	0	
1.29772e-005	-0.00067245	0	
1.20402e-005	-0.000675319	0	
1.1021e-005	-0.000678173	0	
9.9151e-006	-0.000681011	0	
8.71817e-006	-0.000683833	0	
7.41473e-006	-0.00068664	0	
5.99793e-006	-0.000689428	0	
4.4433e-006	-0.000692205	0	
2.73033e-006	-0.000694967	0	
8.19163e-007	-0.000697725	0	
-1.32942e-006	-0.00070047	0	
-3.77433e-006	-0.00070318	0	
-7.74956e-006	-0.000702933	0	
-1.17255e-005	-0.000702516	0	
-1.5703e-005	-0.000701929	0	
-1.96812e-005	-0.00070117	0	
1.72358e-005	-0.000606146	0	
1.72112e-005	-0.000606817	0	
1.71867e-005	-0.000607487	0	
1.71622e-005	-0.000608156	0	
1.79606e-005	-0.000610824	0	
1.86493e-005	-0.000613577	0	
1.9217e-005	-0.000616371	0	
1.96717e-005	-0.000619194	0	
2.00207e-005	-0.000622036	0	
2.02738e-005	-0.000624895	0	
2.04329e-005	-0.000627765	0	
2.05097e-005	-0.000630638	0	
2.05018e-005	-0.000633512	0	
2.04182e-005	-0.000636384	0	
2.02592e-005	-0.000639252	0	
2.00278e-005	-0.000642115	0	
1.97316e-005	-0.000644971	0	
1.93703e-005	-0.000647822	0	
1.89459e-005	-0.000650664	0	
1.84553e-005	-0.000653497	0	
1.78977e-005	-0.000656319	0	
1.72673e-005	-0.000659127	0	
1.65612e-005	-0.000661918	0	
1.57767e-005	-0.000664691	0	
1.49106e-005	-0.000667445	0	
1.39636e-005	-0.000670178	0	
1.29313e-005	-0.000672891	0	
1.18114e-005	-0.000675582	0	
1.06e-005	-0.000678254	0	
9.28732e-006	-0.000680904	0	
7.86864e-006	-0.000683531	0	
6.32441e-006	-0.000686139	0	
4.64581e-006	-0.000688725	0	
2.80169e-006	-0.000691302	0	
7.60903e-007	-0.000693873	0	
-1.53344e-006	-0.000696447	0	
-4.1537e-006	-0.000699007	0	
-8.52434e-006	-0.000698759	0	
-1.28977e-005	-0.000698341	0	
-1.72731e-005	-0.000697751	0	
-2.16512e-005	-0.000696992	0	
1.88026e-005	-0.00060612	0	
1.87759e-005	-0.000606791	0	
1.87491e-005	-0.000607461	0	
1.87224e-005	-0.00060813	0	
1.95691e-005	-0.000610737	0	
2.02938e-005	-0.000613423	0	
2.08904e-005	-0.000616147	0	
2.13628e-005	-0.000618893	0	
2.17221e-005	-0.000621655	0	
2.19746e-005	-0.000624428	0	
2.21299e-005	-0.000627207	0	
2.21878e-005	-0.000629986	0	
2.21606e-005	-0.000632762	0	
2.20484e-005	-0.000635531	0	
2.18559e-005	-0.000638292	0	
2.15892e-005	-0.000641044	0	
2.12499e-005	-0.000643788	0	
2.08449e-005	-0.000646519	0	
2.03688e-005	-0.00064924	0	
1.98224e-005	-0.000651945	0	
1.92011e-005	-0.000654635	0	
1.85009e-005	-0.000657305	0	
1.77192e-005	-0.000659953	0	
1.6852e-005	-0.000662576	0	
1.58991e-005	-0.000665174	0	
1.48578e-005	-0.000667746	0	
1.37304e-005	-0.00067029	0	
1.25086e-005	-0.00067281	0	
1.11877e-005	-0.000675301	0	
9.76319e-006	-0.000677763	0	
8.21989e-006	-0.000680197	0	
6.55595e-006	-0.000682598	0	
4.75057e-006	-0.000684976	0	
2.78945e-006	-0.000687329	0	
6.36786e-007	-0.000689684	0	
-1.77075e-006	-0.000692056	0	
-4.53382e-006	-0.000694442	0	
-9.29958e-006	-0.000694194	0	
-1.40734e-005	-0.000693767	0	
-1.88438e-005	-0.00069317	0	
-2.36218e-005	-0.000692411	0	
2.03695e-005	-0.000606092	0	
2.03405e-005	-0.000606763	0	
2.03115e-005	-0.000607433	0	
2.02826e-005	-0.000608102	0	
2.11693e-005	-0.000610644	0	
2.19262e-005	-0.000613257	0	
2.25444e-005	-0.000615902	0	
2.30309e-005	-0.000618566	0	
2.33939e-005	-0.00062124	0	
2.36448e-005	-0.000623921	0	
2.37844e-005	-0.000626603	0	
2.38253e-005	-0.000629282	0	
2.37701e-005	-0.000631953	0	
2.36264e-005	-0.000634614	0	
2.33989e-005	-0.000637263	0	
2.30896e-005	-0.0006399	0	
2.27088e-005	-0.000642523	0	
2.22513e-005	-0.000645132	0	
2.17216e-005	-0.000647722	0	
2.11141e-005	-0.000650295	0	
2.04255e-005	-0.000652843	0	
1.96523e-005	-0.000655367	0	
1.87895e-005	-0.000657863	0	
1.78382e-005	-0.000660328	0	
1.67932e-005	-0.000662764	0	
1.5659e-005	-0.000665165	0	
1.44293e-005	-0.000667535	0	
1.31039e-005	-0.00066987	0	
1.16738e-005	-0.000672171	0	
1.01289e-005	-0.000674435	0	
8.46659e-006	-0.000676658	0	
6.67031e-006	-0.000678841	0	
4.73977e-006	-0.00068098	0	
2.66039e-006	-0.000683086	0	
4.12781e-007	-0.00068518	0	
-2.0558e-006	-0.000687306	0	
-4.90588e-006	-0.000689494	0	
-1.00786e-005	-0.000689246	0	
-1.52642e-005	-0.000688795	0	
-2.04167e-005	-0.000688177	0	
-2.55855e-005	-0.000687418	0	
2.19364e-005	-0.000606062	0	
2.19052e-005	-0.000606733	0	
2.1874e-005	-0.000607403	0	
2.18428e-005	-0.000608072	0	
2.2762e-005	-0.000610544	0	
2.35428e-005	-0.000613078	0	
2.41769e-005	-0.000615639	0	
2.46704e-005	-0.000618213	0	
2.50336e-005	-0.000620794	0	
2.52729e-005	-0.000623377	0	
2.53985e-005	-0.000625957	0	
2.5413e-005	-0.000628529	0	
2.53287e-005	-0.00063109	0	
2.51506e-005	-0.000633638	0	
2.4881e-005	-0.000636171	0	
2.45314e-005	-0.000638686	0	
2.40989e-005	-0.000641185	0	
2.35908e-005	-0.000643662	0	
2.30002e-005	-0.000646119	0	
2.23276e-005	-0.000648549	0	
2.15685e-005	-0.000650952	0	
2.07156e-005	-0.000653323	0	
1.97712e-005	-0.00065566	0	
1.87287e-005	-0.000657961	0	
1.75938e-005	-0.000660225	0	
1.63592e-005	-0.000662452	0	
1.50293e-005	-0.000664638	0	
1.35947e-005	-0.000666783	0	
1.20486e-005	-0.000668885	0	
1.03852e-005	-0.00067094	0	
8.59e-006	-0.000672945	0	
6.66212e-006	-0.000674893	0	
4.59179e-006	-0.000676784	0	
2.38286e-006	-0.000678617	0	
5.28603e-008	-0.0006804	0	
-2.42061e-006	-0.000682207	0	
-5.24071e-006	-0.000684177	0	
-1.08742e-005	-0.000683927	0	
-1.65014e-005	-0.000683417	0	
-2.1994e-005	-0.000682763	0	
-2.75137e-005	-0.000682013	0	
2.35033e-005	-0.00060603	0	
2.34698e-005	-0.000606701	0	
2.34364e-005	-0.000607371	0	
2.3403e-005	-0.00060804	0	
2.43456e-005	-0.000610436	0	
2.51423e-005	-0.000612888	0	
2.5786e-005	-0.000615359	0	
2.62808e-005	-0.000617838	0	
2.66365e-005	-0.00062032	0	
2.68631e-005	-0.0006228	0	
2.69655e-005	-0.000625273	0	
2.69544e-005	-0.000627735	0	
2.68361e-005	-0.00063018	0	
2.66171e-005	-0.000632611	0	
2.63075e-005	-0.000635022	0	
2.59064e-005	-0.000637412	0	
2.54243e-005	-0.000639778	0	
2.48554e-005	-0.000642121	0	
2.42027e-005	-0.000644435	0	
2.34609e-005	-0.00064672	0	
2.26239e-005	-0.000648969	0	
2.1692e-005	-0.000651182	0	
2.06573e-005	-0.000653355	0	
1.95267e-005	-0.000655487	0	
1.82923e-005	-0.000657576	0	
1.69599e-005	-0.00065962	0	
1.55218e-005	-0.000661616	0	
1.3976e-005	-0.000663565	0	
1.23129e-005	-0.000665461	0	
1.05198e-005	-0.000667303	0	
8.59275e-006	-0.000669082	0	
6.51751e-006	-0.000670795	0	
4.29671e-006	-0.000672432	0	
1.93572e-006	-0.000673987	0	
-5.18601e-007	-0.000675434	0	
-3.04079e-006	-0.000676858	0	
-5.36192e-006	-0.000678382	0	
-1.17159e-005	-0.000678198	0	
-1.78324e-005	-0.000677617	0	
-2.35652e-005	-0.000676951	0	
-2.93418e-005	-0.000676239	0	
2.50702e-005	-0.000605995	0	
2.50345e-005	-0.000606666	0	
2.49988e-005	-0.000607336	0	
2.49631e-005	-0.000608005	0	
2.5919e-005	-0.000610323	0	
2.67247e-005	-0.000612687	0	
2.73696e-005	-0.000615066	0	
2.78598e-005	-0.000617447	0	
2.82039e-005	-0.000619826	0	
2.84103e-005	-0.000622199	0	
2.84885e-005	-0.00062456	0	
2.84453e-005	-0.000626906	0	
2.82881e-005	-0.000629235	0	
2.80287e-005	-0.000631542	0	
2.76689e-005	-0.000633828	0	
2.7219e-005	-0.000636086	0	
2.6676e-005	-0.000638318	0	
2.60467e-005	-0.000640519	0	
2.53248e-005	-0.000642687	0	
2.45076e-005	-0.000644817	0	
2.3593e-005	-0.000646909	0	
2.25725e-005	-0.000648958	0	
2.14522e-005	-0.000650962	0	
2.02236e-005	-0.00065292	0	
1.88931e-005	-0.000654828	0	
1.74536e-005	-0.000656685	0	
1.59076e-005	-0.00065849	0	
1.42463e-005	-0.000660236	0	
1.24593e-005	-0.000661924	0	
1.05387e-005	-0.000663545	0	
8.46785e-006	-0.000665097	0	
6.24294e-006	-0.00066657	0	
3.85917e-006	-0.000667959	0	
1.31408e-006	-0.000669249	0	