# vtk DataFile Version 4.1
vtk output
ASCII
DATASET UNSTRUCTURED_GRID

POINTS	14721	float
0	0	0	
0	1.25	0	
0	2.5	0	
0	3.75	0	
0	5	0	
0	6.25	0	
0	7.5	0	
0	8.75	0	
0	10	0	
0	11.25	0	
0	12.5	0	
0	13.75	0	
0	15	0	
0	16.25	0	
0	17.5	0	
0	18.75	0	
0	20	0	
0	21.25	0	
0	22.5	0	
0	23.75	0	
0	25	0	
0	26.25	0	
0	27.5	0	
0	28.75	0	
0	30	0	
0	31.25	0	
0	32.5	0	
0	33.75	0	
0	35	0	
0	36.25	0	
0	37.5	0	
0	38.75	0	
0	40	0	
0	41.25	0	
0	42.5	0	
0	43.75	0	
0	45	0	
0	46.25	0	
0	47.5	0	
0	48.75	0	
0	50	0	
1.25	0	0	
1.25	1.25	0	
1.25	2.5	0	
1.25	3.75	0	
1.25	5	0	
1.25	6.25	0	
1.25	7.5	0	
1.25	8.75	0	
1.25	10	0	
1.25	11.25	0	
1.25	12.5	0	
1.25	13.75	0	
1.25	15	0	
1.25	16.25	0	
1.25	17.5	0	
1.25	18.75	0	
1.25	20	0	
1.25	21.25	0	
1.25	22.5	0	
1.25	23.75	0	
1.25	25	0	
1.25	26.25	0	
1.25	27.5	0	
1.25	28.75	0	
1.25	30	0	
1.25	31.25	0	
1.25	32.5	0	
1.25	33.75	0	
1.25	35	0	
1.25	36.25	0	
1.25	37.5	0	
1.25	38.75	0	
1.25	40	0	
1.25	41.25	0	
1.25	42.5	0	
1.25	43.75	0	
1.25	45	0	
1.25	46.25	0	
1.25	47.5	0	
1.25	48.75	0	
1.25	50	0	
2.5	0	0	
2.5	1.25	0	
2.5	2.5	0	
2.5	3.75	0	
2.5	5	0	
2.5	6.25	0	
2.5	7.5	0	
2.5	8.75	0	
2.5	10	0	
2.5	11.25	0	
2.5	12.5	0	
2.5	13.75	0	
2.5	15	0	
2.5	16.25	0	
2.5	17.5	0	
2.5	18.75	0	
2.5	20	0	
2.5	21.25	0	
2.5	22.5	0	
2.5	23.75	0	
2.5	25	0	
2.5	26.25	0	
2.5	27.5	0	
2.5	28.75	0	
2.5	30	0	
2.5	31.25	0	
2.5	32.5	0	
2.5	33.75	0	
2.5	35	0	
2.5	36.25	0	
2.5	37.5	0	
2.5	38.75	0	
2.5	40	0	
2.5	41.25	0	
2.5	42.5	0	
2.5	43.75	0	
2.5	45	0	
2.5	46.25	0	
2.5	47.5	0	
2.5	48.75	0	
2.5	50	0	
3.75	0	0	
3.75	1.25	0	
3.75	2.5	0	
3.75	3.75	0	
3.75	5	0	
3.75	6.25	0	
3.75	7.5	0	
3.75	8.75	0	
3.75	10	0	
3.75	11.25	0	
3.75	12.5	0	
3.75	13.75	0	
3.75	15	0	
3.75	16.25	0	
3.75	17.5	0	
3.75	18.75	0	
3.75	20	0	
3.75	21.25	0	
3.75	22.5	0	
3.75	23.75	0	
3.75	25	0	
3.75	26.25	0	
3.75	27.5	0	
3.75	28.75	0	
3.75	30	0	
3.75	31.25	0	
3.75	32.5	0	
3.75	33.75	0	
3.75	35	0	
3.75	36.25	0	
3.75	37.5	0	
3.75	38.75	0	
3.75	40	0	
3.75	41.25	0	
3.75	42.5	0	
3.75	43.75	0	
3.75	45	0	
3.75	46.25	0	
3.75	47.5	0	
3.75	48.75	0	
3.75	50	0	
5	0	0	
5	1.25	0	
5	2.5	0	
5	3.75	0	
5	5	0	
5	6.25	0	
5	7.5	0	
5	8.75	0	
5	10	0	
5	11.25	0	
5	12.5	0	
5	13.75	0	
5	15	0	
5	16.25	0	
5	17.5	0	
5	18.75	0	
5	20	0	
5	21.25	0	
5	22.5	0	
5	23.75	0	
5	25	0	
5	26.25	0	
5	27.5	0	
5	28.75	0	
5	30	0	
5	31.25	0	
5	32.5	0	
5	33.75	0	
5	35	0	
5	36.25	0	
5	37.5	0	
5	38.75	0	
5	40	0	
5	41.25	0	
5	42.5	0	
5	43.75	0	
5	45	0	
5	46.25	0	
5	47.5	0	
5	48.75	0	
5	50	0	
6.25	0	0	
6.25	1.25	0	
6.25	2.5	0	
6.25	3.75	0	
6.25	5	0	
6.25	6.25	0	
6.25	7.5	0	
6.25	8.75	0	
6.25	10	0	
6.25	11.25	0	
6.25	12.5	0	
6.25	13.75	0	
6.25	15	0	
6.25	16.25	0	
6.25	17.5	0	
6.25	18.75	0	
6.25	20	0	
6.25	21.25	0	
6.25	22.5	0	
6.25	23.75	0	
6.25	25	0	
6.25	26.25	0	
6.25	27.5	0	
6.25	28.75	0	
6.25	30	0	
6.25	31.25	0	
6.25	32.5	0	
6.25	33.75	0	
6.25	35	0	
6.25	36.25	0	
6.25	37.5	0	
6.25	38.75	0	
6.25	40	0	
6.25	41.25	0	
6.25	42.5	0	
6.25	43.75	0	
6.25	45	0	
6.25	46.25	0	
6.25	47.5	0	
6.25	48.75	0	
6.25	50	0	
7.5	0	0	
7.5	1.25	0	
7.5	2.5	0	
7.5	3.75	0	
7.5	5	0	
7.5	6.25	0	
7.5	7.5	0	
7.5	8.75	0	
7.5	10	0	
7.5	11.25	0	
7.5	12.5	0	
7.5	13.75	0	
7.5	15	0	
7.5	16.25	0	
7.5	17.5	0	
7.5	18.75	0	
7.5	20	0	
7.5	21.25	0	
7.5	22.5	0	
7.5	23.75	0	
7.5	25	0	
7.5	26.25	0	
7.5	27.5	0	
7.5	28.75	0	
7.5	30	0	
7.5	31.25	0	
7.5	32.5	0	
7.5	33.75	0	
7.5	35	0	
7.5	36.25	0	
7.5	37.5	0	
7.5	38.75	0	
7.5	40	0	
7.5	41.25	0	
7.5	42.5	0	
7.5	43.75	0	
7.5	45	0	
7.5	46.25	0	
7.5	47.5	0	
7.5	48.75	0	
7.5	50	0	
8.75	0	0	
8.75	1.25	0	
8.75	2.5	0	
8.75	3.75	0	
8.75	5	0	
8.75	6.25	0	
8.75	7.5	0	
8.75	8.75	0	
8.75	10	0	
8.75	11.25	0	
8.75	12.5	0	
8.75	13.75	0	
8.75	15	0	
8.75	16.25	0	
8.75	17.5	0	
8.75	18.75	0	
8.75	20	0	
8.75	21.25	0	
8.75	22.5	0	
8.75	23.75	0	
8.75	25	0	
8.75	26.25	0	
8.75	27.5	0	
8.75	28.75	0	
8.75	30	0	
8.75	31.25	0	
8.75	32.5	0	
8.75	33.75	0	
8.75	35	0	
8.75	36.25	0	
8.75	37.5	0	
8.75	38.75	0	
8.75	40	0	
8.75	41.25	0	
8.75	42.5	0	
8.75	43.75	0	
8.75	45	0	
8.75	46.25	0	
8.75	47.5	0	
8.75	48.75	0	
8.75	50	0	
10	0	0	
10	1.25	0	
10	2.5	0	
10	3.75	0	
10	5	0	
10	6.25	0	
10	7.5	0	
10	8.75	0	
10	10	0	
10	11.25	0	
10	12.5	0	
10	13.75	0	
10	15	0	
10	16.25	0	
10	17.5	0	
10	18.75	0	
10	20	0	
10	21.25	0	
10	22.5	0	
10	23.75	0	
10	25	0	
10	26.25	0	
10	27.5	0	
10	28.75	0	
10	30	0	
10	31.25	0	
10	32.5	0	
10	33.75	0	
10	35	0	
10	36.25	0	
10	37.5	0	
10	38.75	0	
10	40	0	
10	41.25	0	
10	42.5	0	
10	43.75	0	
10	45	0	
10	46.25	0	
10	47.5	0	
10	48.75	0	
10	50	0	
11.25	0	0	
11.25	1.25	0	
11.25	2.5	0	
11.25	3.75	0	
11.25	5	0	
11.25	6.25	0	
11.25	7.5	0	
11.25	8.75	0	
11.25	10	0	
11.25	11.25	0	
11.25	12.5	0	
11.25	13.75	0	
11.25	15	0	
11.25	16.25	0	
11.25	17.5	0	
11.25	18.75	0	
11.25	20	0	
11.25	21.25	0	
11.25	22.5	0	
11.25	23.75	0	
11.25	25	0	
11.25	26.25	0	
11.25	27.5	0	
11.25	28.75	0	
11.25	30	0	
11.25	31.25	0	
11.25	32.5	0	
11.25	33.75	0	
11.25	35	0	
11.25	36.25	0	
11.25	37.5	0	
11.25	38.75	0	
11.25	40	0	
11.25	41.25	0	
11.25	42.5	0	
11.25	43.75	0	
11.25	45	0	
11.25	46.25	0	
11.25	47.5	0	
11.25	48.75	0	
11.25	50	0	
12.5	0	0	
12.5	1.25	0	
12.5	2.5	0	
12.5	3.75	0	
12.5	5	0	
12.5	6.25	0	
12.5	7.5	0	
12.5	8.75	0	
12.5	10	0	
12.5	11.25	0	
12.5	12.5	0	
12.5	13.75	0	
12.5	15	0	
12.5	16.25	0	
12.5	17.5	0	
12.5	18.75	0	
12.5	20	0	
12.5	21.25	0	
12.5	22.5	0	
12.5	23.75	0	
12.5	25	0	
12.5	26.25	0	
12.5	27.5	0	
12.5	28.75	0	
12.5	30	0	
12.5	31.25	0	
12.5	32.5	0	
12.5	33.75	0	
12.5	35	0	
12.5	36.25	0	
12.5	37.5	0	
12.5	38.75	0	
12.5	40	0	
12.5	41.25	0	
12.5	42.5	0	
12.5	43.75	0	
12.5	45	0	
12.5	46.25	0	
12.5	47.5	0	
12.5	48.75	0	
12.5	50	0	
13.75	0	0	
13.75	1.25	0	
13.75	2.5	0	
13.75	3.75	0	
13.75	5	0	
13.75	6.25	0	
13.75	7.5	0	
13.75	8.75	0	
13.75	10	0	
13.75	11.25	0	
13.75	12.5	0	
13.75	13.75	0	
13.75	15	0	
13.75	16.25	0	
13.75	17.5	0	
13.75	18.75	0	
13.75	20	0	
13.75	21.25	0	
13.75	22.5	0	
13.75	23.75	0	
13.75	25	0	
13.75	26.25	0	
13.75	27.5	0	
13.75	28.75	0	
13.75	30	0	
13.75	31.25	0	
13.75	32.5	0	
13.75	33.75	0	
13.75	35	0	
13.75	36.25	0	
13.75	37.5	0	
13.75	38.75	0	
13.75	40	0	
13.75	41.25	0	
13.75	42.5	0	
13.75	43.75	0	
13.75	45	0	
13.75	46.25	0	
13.75	47.5	0	
13.75	48.75	0	
13.75	50	0	
15	0	0	
15	1.25	0	
15	2.5	0	
15	3.75	0	
15	5	0	
15	6.25	0	
15	7.5	0	
15	8.75	0	
15	10	0	
15	11.25	0	
15	12.5	0	
15	13.75	0	
15	15	0	
15	16.25	0	
15	17.5	0	
15	18.75	0	
15	20	0	
15	21.25	0	
15	22.5	0	
15	23.75	0	
15	25	0	
15	26.25	0	
15	27.5	0	
15	28.75	0	
15	30	0	
15	31.25	0	
15	32.5	0	
15	33.75	0	
15	35	0	
15	36.25	0	
15	37.5	0	
15	38.75	0	
15	40	0	
15	41.25	0	
15	42.5	0	
15	43.75	0	
15	45	0	
15	46.25	0	
15	47.5	0	
15	48.75	0	
15	50	0	
16.25	0	0	
16.25	1.25	0	
16.25	2.5	0	
16.25	3.75	0	
16.25	5	0	
16.25	6.25	0	
16.25	7.5	0	
16.25	8.75	0	
16.25	10	0	
16.25	11.25	0	
16.25	12.5	0	
16.25	13.75	0	
16.25	15	0	
16.25	16.25	0	
16.25	17.5	0	
16.25	18.75	0	
16.25	20	0	
16.25	21.25	0	
16.25	22.5	0	
16.25	23.75	0	
16.25	25	0	
16.25	26.25	0	
16.25	27.5	0	
16.25	28.75	0	
16.25	30	0	
16.25	31.25	0	
16.25	32.5	0	
16.25	33.75	0	
16.25	35	0	
16.25	36.25	0	
16.25	37.5	0	
16.25	38.75	0	
16.25	40	0	
16.25	41.25	0	
16.25	42.5	0	
16.25	43.75	0	
16.25	45	0	
16.25	46.25	0	
16.25	47.5	0	
16.25	48.75	0	
16.25	50	0	
17.5	0	0	
17.5	1.25	0	
17.5	2.5	0	
17.5	3.75	0	
17.5	5	0	
17.5	6.25	0	
17.5	7.5	0	
17.5	8.75	0	
17.5	10	0	
17.5	11.25	0	
17.5	12.5	0	
17.5	13.75	0	
17.5	15	0	
17.5	16.25	0	
17.5	17.5	0	
17.5	18.75	0	
17.5	20	0	
17.5	21.25	0	
17.5	22.5	0	
17.5	23.75	0	
17.5	25	0	
17.5	26.25	0	
17.5	27.5	0	
17.5	28.75	0	
17.5	30	0	
17.5	31.25	0	
17.5	32.5	0	
17.5	33.75	0	
17.5	35	0	
17.5	36.25	0	
17.5	37.5	0	
17.5	38.75	0	
17.5	40	0	
17.5	41.25	0	
17.5	42.5	0	
17.5	43.75	0	
17.5	45	0	
17.5	46.25	0	
17.5	47.5	0	
17.5	48.75	0	
17.5	50	0	
18.75	0	0	
18.75	1.25	0	
18.75	2.5	0	
18.75	3.75	0	
18.75	5	0	
18.75	6.25	0	
18.75	7.5	0	
18.75	8.75	0	
18.75	10	0	
18.75	11.25	0	
18.75	12.5	0	
18.75	13.75	0	
18.75	15	0	
18.75	16.25	0	
18.75	17.5	0	
18.75	18.75	0	
18.75	20	0	
18.75	21.25	0	
18.75	22.5	0	
18.75	23.75	0	
18.75	25	0	
18.75	26.25	0	
18.75	27.5	0	
18.75	28.75	0	
18.75	30	0	
18.75	31.25	0	
18.75	32.5	0	
18.75	33.75	0	
18.75	35	0	
18.75	36.25	0	
18.75	37.5	0	
18.75	38.75	0	
18.75	40	0	
18.75	41.25	0	
18.75	42.5	0	
18.75	43.75	0	
18.75	45	0	
18.75	46.25	0	
18.75	47.5	0	
18.75	48.75	0	
18.75	50	0	
20	0	0	
20	1.25	0	
20	2.5	0	
20	3.75	0	
20	5	0	
20	6.25	0	
20	7.5	0	
20	8.75	0	
20	10	0	
20	11.25	0	
20	12.5	0	
20	13.75	0	
20	15	0	
20	16.25	0	
20	17.5	0	
20	18.75	0	
20	20	0	
20	21.25	0	
20	22.5	0	
20	23.75	0	
20	25	0	
20	26.25	0	
20	27.5	0	
20	28.75	0	
20	30	0	
20	31.25	0	
20	32.5	0	
20	33.75	0	
20	35	0	
20	36.25	0	
20	37.5	0	
20	38.75	0	
20	40	0	
20	41.25	0	
20	42.5	0	
20	43.75	0	
20	45	0	
20	46.25	0	
20	47.5	0	
20	48.75	0	
20	50	0	
21.25	0	0	
21.25	1.25	0	
21.25	2.5	0	
21.25	3.75	0	
21.25	5	0	
21.25	6.25	0	
21.25	7.5	0	
21.25	8.75	0	
21.25	10	0	
21.25	11.25	0	
21.25	12.5	0	
21.25	13.75	0	
21.25	15	0	
21.25	16.25	0	
21.25	17.5	0	
21.25	18.75	0	
21.25	20	0	
21.25	21.25	0	
21.25	22.5	0	
21.25	23.75	0	
21.25	25	0	
21.25	26.25	0	
21.25	27.5	0	
21.25	28.75	0	
21.25	30	0	
21.25	31.25	0	
21.25	32.5	0	
21.25	33.75	0	
21.25	35	0	
21.25	36.25	0	
21.25	37.5	0	
21.25	38.75	0	
21.25	40	0	
21.25	41.25	0	
21.25	42.5	0	
21.25	43.75	0	
21.25	45	0	
21.25	46.25	0	
21.25	47.5	0	
21.25	48.75	0	
21.25	50	0	
22.5	0	0	
22.5	1.25	0	
22.5	2.5	0	
22.5	3.75	0	
22.5	5	0	
22.5	6.25	0	
22.5	7.5	0	
22.5	8.75	0	
22.5	10	0	
22.5	11.25	0	
22.5	12.5	0	
22.5	13.75	0	
22.5	15	0	
22.5	16.25	0	
22.5	17.5	0	
22.5	18.75	0	
22.5	20	0	
22.5	21.25	0	
22.5	22.5	0	
22.5	23.75	0	
22.5	25	0	
22.5	26.25	0	
22.5	27.5	0	
22.5	28.75	0	
22.5	30	0	
22.5	31.25	0	
22.5	32.5	0	
22.5	33.75	0	
22.5	35	0	
22.5	36.25	0	
22.5	37.5	0	
22.5	38.75	0	
22.5	40	0	
22.5	41.25	0	
22.5	42.5	0	
22.5	43.75	0	
22.5	45	0	
22.5	46.25	0	
22.5	47.5	0	
22.5	48.75	0	
22.5	50	0	
23.75	0	0	
23.75	1.25	0	
23.75	2.5	0	
23.75	3.75	0	
23.75	5	0	
23.75	6.25	0	
23.75	7.5	0	
23.75	8.75	0	
23.75	10	0	
23.75	11.25	0	
23.75	12.5	0	
23.75	13.75	0	
23.75	15	0	
23.75	16.25	0	
23.75	17.5	0	
23.75	18.75	0	
23.75	20	0	
23.75	21.25	0	
23.75	22.5	0	
23.75	23.75	0	
23.75	25	0	
23.75	26.25	0	
23.75	27.5	0	
23.75	28.75	0	
23.75	30	0	
[...]
POINT_DATA	14721
VECTORS u0 float
6.53559e-017	-0.000655536	0	
6.85555e-017	-0.000657102	0	
7.17549e-017	-0.000658744	0	
7.49548e-017	-0.00066046	0	
-2.62706e-015	-0.000969895	0	
-2.44033e-015	-0.00129156	0	
-2.26e-015	-0.00162307	0	
-2.09348e-015	-0.0019635	0	
-1.94156e-015	-0.00231231	0	
-1.80355e-015	-0.00266905	0	
-1.67891e-015	-0.00303331	0	
-1.56703e-015	-0.00340481	0	
-1.46703e-015	-0.00378323	0	
-1.379e-015	-0.00416833	0	
-1.30237e-015	-0.00455992	0	
-1.23691e-015	-0.00495783	0	
-1.1824e-015	-0.00536192	0	
-1.13875e-015	-0.00577208	0	
-1.10591e-015	-0.0061882	0	
-1.08395e-015	-0.00661021	0	
-1.07311e-015	-0.00703802	0	
-1.07373e-015	-0.00747157	0	
-1.08632e-015	-0.00791077	0	
-1.11121e-015	-0.00835555	0	
-1.14934e-015	-0.0088058	0	
-1.20126e-015	-0.00926143	0	
-1.26809e-015	-0.00972231	0	
-1.35092e-015	-0.0101883	0	
-1.45096e-015	-0.0106592	0	
-1.56981e-015	-0.0111348	0	
-1.70905e-015	-0.0116148	0	
-1.87033e-015	-0.0120989	0	
-2.05634e-015	-0.0125867	0	
-2.26929e-015	-0.0130777	0	
-2.51196e-015	-0.0135712	0	
-2.78535e-015	-0.0140669	0	
-3.06631e-015	-0.0145629	0	
1.07475e-015	-0.0150532	0	
3.12622e-016	-0.0150697	0	
-4.17982e-016	-0.0150708	0	
-1.49826e-015	-0.0150635	0	
3.56843e-006	-0.000655623	0	
3.74313e-006	-0.00065719	0	
3.91782e-006	-0.000658831	0	
4.09252e-006	-0.000660548	0	
1.81369e-005	-0.00096973	0	
3.11834e-005	-0.00129112	0	
4.32342e-005	-0.00162233	0	
5.43529e-005	-0.00196246	0	
6.46071e-005	-0.00231094	0	
7.40619e-005	-0.00266732	0	
8.27713e-005	-0.00303122	0	
9.07856e-005	-0.00340233	0	
9.81456e-005	-0.00378035	0	
0.000104886	-0.00416504	0	
0.000111039	-0.0045562	0	
0.000116629	-0.00495366	0	
0.000121677	-0.00535729	0	
0.000126197	-0.00576696	0	
0.000130196	-0.00618259	0	
0.000133674	-0.00660408	0	
0.000136623	-0.00703136	0	
0.000139031	-0.00746435	0	
0.000140874	-0.00790298	0	
0.000142126	-0.00834715	0	
0.000142753	-0.00879678	0	
0.000142709	-0.00925177	0	
0.000141945	-0.00971197	0	
0.000140398	-0.0101772	0	
0.000137994	-0.0106474	0	
0.000134649	-0.0111222	0	
0.000130262	-0.0116014	0	
0.000124719	-0.0120847	0	
0.000117891	-0.0125715	0	
0.000109631	-0.0130615	0	
9.97702e-005	-0.0135539	0	
8.80873e-005	-0.0140482	0	
7.43407e-005	-0.0145427	0	
5.83186e-005	-0.0150312	0	
1.71562e-005	-0.0150472	0	
-2.27039e-005	-0.0150461	0	
-6.61177e-005	-0.015028	0	
7.13686e-006	-0.000655885	0	
7.48625e-006	-0.000657452	0	
7.83565e-006	-0.000659093	0	
8.18504e-006	-0.00066081	0	
3.62133e-005	-0.000969239	0	
6.22525e-005	-0.00128981	0	
8.6303e-005	-0.00162014	0	
0.000108492	-0.00195932	0	
0.000128959	-0.00230681	0	
0.000147826	-0.00266215	0	
0.000165207	-0.00302495	0	
0.000181201	-0.00339492	0	
0.000195885	-0.00377175	0	
0.000209335	-0.00415519	0	
0.00022161	-0.00454506	0	
0.000232763	-0.00494118	0	
0.000242833	-0.00534342	0	
0.000251846	-0.00575166	0	
0.000259819	-0.00616579	0	
0.000266749	-0.00658574	0	
0.000272624	-0.00701141	0	
0.000277414	-0.00744274	0	
0.000281078	-0.00787964	0	
0.00028356	-0.00832202	0	
0.000284789	-0.00876979	0	
0.000284681	-0.00922283	0	
0.00028313	-0.00968102	0	
0.000280011	-0.0101442	0	
0.00027518	-0.0106121	0	
0.000268461	-0.0110847	0	
0.000259658	-0.0115614	0	
0.000248533	-0.0120421	0	
0.000234822	-0.0125262	0	
0.00021822	-0.0130132	0	
0.000198364	-0.0135023	0	
0.00017479	-0.0139929	0	
0.000146953	-0.0144832	0	
0.000114127	-0.0149672	0	
3.29889e-005	-0.0149821	0	
-4.60861e-005	-0.0149804	0	
-0.000128128	-0.0149623	0	
1.07053e-005	-0.000656322	0	
1.12294e-005	-0.000657888	0	
1.17535e-005	-0.00065953	0	
1.22776e-005	-0.000661247	0	
5.41726e-005	-0.000968424	0	
9.30922e-005	-0.00128763	0	
0.000129041	-0.00161649	0	
0.000162209	-0.00195411	0	
0.000192798	-0.00229995	0	
0.000221	-0.00265355	0	
0.000246976	-0.00301454	0	
0.000270874	-0.00338261	0	
0.000292818	-0.00375745	0	
0.000312912	-0.00413884	0	
0.000331251	-0.00452656	0	
0.00034791	-0.00492046	0	
0.000362948	-0.00532039	0	
0.000376404	-0.00572624	0	
0.000388299	-0.0061379	0	
0.000398633	-0.00655528	0	
0.000407384	-0.0069783	0	
0.000414511	-0.00740687	0	
0.000419949	-0.0078409	0	
0.000423614	-0.00828031	0	
0.000425404	-0.00872499	0	
0.000425185	-0.00917483	0	
0.000422803	-0.00962967	0	
0.000418071	-0.0100894	0	
0.000410764	-0.0105537	0	
0.000400626	-0.0110224	0	
0.000387348	-0.0114952	0	
0.000370577	-0.0119716	0	
0.000349901	-0.0124512	0	
0.000324844	-0.0129334	0	
0.000294833	-0.0134174	0	
0.000259151	-0.0139023	0	
0.000216907	-0.0143864	0	
0.00016676	-0.0148641	0	
4.78007e-005	-0.0148781	0	
-6.88729e-005	-0.0148764	0	
-0.000187923	-0.014859	0	
1.42737e-005	-0.000656933	0	
1.49725e-005	-0.0006585	0	
1.56713e-005	-0.000660141	0	
1.63701e-005	-0.000661858	0	
7.19525e-005	-0.000967291	0	
0.000123592	-0.00128459	0	
0.000171288	-0.00161141	0	
0.000215292	-0.00194686	0	
0.000255879	-0.0022904	0	
0.00029329	-0.00264159	0	
0.000327747	-0.00300004	0	
0.000359447	-0.00336547	0	
0.000388546	-0.00373755	0	
0.000415193	-0.00411607	0	
0.000439507	-0.00450081	0	
0.000461587	-0.00489161	0	
0.000481512	-0.00528834	0	
0.000499333	-0.00569086	0	
0.000515075	-0.00609908	0	
0.000528739	-0.0065129	0	
0.000540297	-0.00693221	0	
0.000549689	-0.00735695	0	
0.000556833	-0.007787	0	
0.000561619	-0.00822229	0	
0.000563903	-0.00866268	0	
0.000563514	-0.00910806	0	
0.000560242	-0.00955828	0	
0.000553833	-0.0100132	0	
0.000543994	-0.0104725	0	
0.000530369	-0.0109359	0	
0.000512556	-0.0114032	0	
0.000490065	-0.0118739	0	
0.000462343	-0.0123474	0	
0.000428738	-0.0128232	0	
0.000388465	-0.0133005	0	
0.000340557	-0.013778	0	
0.000283817	-0.0142545	0	
0.000216322	-0.0147244	0	
6.1735e-005	-0.0147376	0	
-9.05099e-005	-0.0147359	0	
-0.000245106	-0.0147194	0	
1.78421e-005	-0.000657719	0	
1.87156e-005	-0.000659286	0	
1.95891e-005	-0.000660928	0	
2.04626e-005	-0.000662644	0	
8.95002e-005	-0.000965848	0	
0.000153639	-0.00128072	0	
0.000212883	-0.00160493	0	
0.000267542	-0.0019376	0	
0.000317949	-0.00227822	0	
0.000364413	-0.00262632	0	
0.000407201	-0.00298154	0	
0.000446558	-0.00334359	0	
0.000482685	-0.00371215	0	
0.000515758	-0.004087	0	
0.000545928	-0.00446794	0	
0.00057332	-0.0048548	0	
0.000598026	-0.00524744	0	
0.000620108	-0.00564573	0	
0.000639601	-0.00604955	0	
0.000656499	-0.00645882	0	
0.000670769	-0.00687342	0	
0.000682337	-0.00729327	0	
0.000691102	-0.00771827	0	
0.000696922	-0.0081483	0	
0.000699623	-0.00858326	0	
0.000698986	-0.00902299	0	
0.000694748	-0.00946734	0	
0.000686596	-0.00991612	0	
0.000674151	-0.0103691	0	
0.000656982	-0.0108259	0	
0.000634566	-0.0112863	0	
0.000606298	-0.0117498	0	
0.000571477	-0.0122159	0	
0.000529279	-0.0126838	0	
0.000478722	-0.0131528	0	
0.000418613	-0.0136217	0	
0.000347478	-0.0140892	0	
0.000262964	-0.0145501	0	
7.47226e-005	-0.0145624	0	
-0.000111172	-0.0145608	0	
-0.000299406	-0.0145451	0	
2.14105e-005	-0.00065868	0	
2.24587e-005	-0.000660247	0	
2.3507e-005	-0.000661888	0	
2.45552e-005	-0.000663605	0	
0.000106755	-0.000964107	0	
0.000183128	-0.00127603	0	
0.000253672	-0.00159708	0	
0.000318754	-0.00192639	0	
0.000378773	-0.00226345	0	
0.000434089	-0.00260782	0	
0.000485023	-0.00295913	0	
0.000531867	-0.00331708	0	
0.000574855	-0.00368139	0	
0.000614202	-0.0040518	0	
0.000650085	-0.00442814	0	
0.000682648	-0.00481023	0	
0.000712004	-0.00519791	0	
0.000738224	-0.00559108	0	
0.000761343	-0.0059896	0	
0.00078136	-0.00639336	0	
0.000798228	-0.00680227	0	
0.000811865	-0.00721623	0	
0.000822145	-0.00763511	0	
0.000828904	-0.00805882	0	
0.000831926	-0.00848722	0	
0.000830955	-0.00892016	0	
0.000825671	-0.00935746	0	
0.000815696	-0.00979893	0	
0.000800584	-0.0102443	0	
0.000779805	-0.0106933	0	
0.000752745	-0.0111455	0	
0.000718665	-0.0116005	0	
0.000676734	-0.0120577	0	
0.000625965	-0.0125164	0	
0.000565194	-0.0129759	0	
0.000493029	-0.013435	0	
0.000407769	-0.0138923	0	
0.000306717	-0.0143431	0	
8.67543e-005	-0.0143546	0	
-0.000130864	-0.014353	0	
-0.000350824	-0.0143381	0	
2.49789e-005	-0.000659816	0	
2.62019e-005	-0.000661382	0	
2.74248e-005	-0.000663024	0	
2.86477e-005	-0.000664741	0	
0.000123667	-0.000962079	0	
0.000211954	-0.00127056	0	
0.000293505	-0.00158791	0	
0.000368741	-0.00191329	0	
0.000438117	-0.00224619	0	
0.000502052	-0.00258619	0	
0.000560914	-0.00293292	0	
0.000615036	-0.00328609	0	
0.000664695	-0.00364542	0	
0.000710133	-0.00401066	0	
0.000751556	-0.00438162	0	
0.000789131	-0.00475813	0	
0.00082298	-0.00514004	0	
0.000853187	-0.00552722	0	
0.000879793	-0.00591955	0	
0.000902789	-0.0063169	0	
0.000922127	-0.00671917	0	
0.000937707	-0.00712625	0	
0.000949387	-0.00753803	0	
0.00095697	-0.00795438	0	
0.000960214	-0.00837516	0	
0.000958812	-0.00880021	0	
0.000952396	-0.00922936	0	
0.000940528	-0.00966237	0	
0.000922684	-0.010099	0	
0.000898257	-0.0105389	0	
0.000866521	-0.0109818	0	
0.000826637	-0.011427	0	
0.000777633	-0.0118742	0	
0.000718381	-0.0123226	0	
0.000647554	-0.0127713	0	
0.000563591	-0.0132195	0	
0.000464581	-0.0136657	0	
0.000347582	-0.0141053	0	
9.78227e-005	-0.014116	0	
-0.000149592	-0.0141144	0	
-0.000399351	-0.0141004	0	
2.85473e-005	-0.000661126	0	
2.9945e-005	-0.000662693	0	
3.13426e-005	-0.000664334	0	
3.27403e-005	-0.000666051	0	
0.000140183	-0.000959779	0	
0.00024002	-0.00126433	0	
0.000332239	-0.00157746	0	
0.000417315	-0.00189836	0	
0.00049576	-0.00222652	0	
0.000568044	-0.00256154	0	
0.000634579	-0.00290305	0	
0.000695748	-0.00325078	0	
0.000751855	-0.00360444	0	
0.000803177	-0.00396378	0	
0.000849946	-0.00432862	0	
0.000892342	-0.00469879	0	
0.000930509	-0.00507413	0	
0.000964534	-0.0054545	0	
0.000994462	-0.00583979	0	
0.00102029	-0.00622985	0	
0.00104194	-0.00662459	0	
0.00105933	-0.00702387	0	
0.00107228	-0.00742759	0	
0.00108057	-0.0078356	0	
0.00108392	-0.00824776	0	
0.00108199	-0.0086639	0	
0.00107436	-0.00908384	0	
0.00106053	-0.00950734	0	
0.00103991	-0.00993413	0	
0.0010118	-0.0103639	0	
0.000975405	-0.0107963	0	
0.000929751	-0.0112307	0	
0.00087377	-0.0116668	0	
0.000806187	-0.0121037	0	
0.00072554	-0.0125408	0	
0.000630116	-0.012977	0	
0.000517844	-0.0134111	0	
0.000385558	-0.0138387	0	
0.000107928	-0.0138486	0	
-0.000167358	-0.013847	0	
-0.000444989	-0.0138338	0	
3.21157e-005	-0.000662611	0	
3.36881e-005	-0.000664178	0	
3.52605e-005	-0.000665819	0	
3.68328e-005	-0.000667536	0	
0.000156256	-0.000957225	0	
0.00026723	-0.00125737	0	
0.000369738	-0.00156579	0	
0.000464303	-0.00188167	0	
0.000551491	-0.00220454	0	
0.000631819	-0.002534	0	
0.00070575	-0.00286968	0	
0.000773696	-0.00321133	0	
0.000836007	-0.00355865	0	
0.00089298	-0.00391142	0	
0.00094487	-0.00426943	0	
0.000991884	-0.00463252	0	
0.00103417	-0.00500053	0	
0.00107182	-0.00537332	0	
0.00110489	-0.00575075	0	
0.00113337	-0.0061327	0	
0.0011572	-0.00651905	0	
0.00117624	-0.00690966	0	
0.00119032	-0.00730442	0	
0.00119918	-0.00770317	0	
0.00120254	-0.00810577	0	
0.00119998	-0.00851205	0	
0.00119106	-0.0089218	0	
0.0011752	-0.00933479	0	
0.00115177	-0.00975076	0	
0.00111998	-0.0101694	0	
0.00107895	-0.0105903	0	
0.00102762	-0.0110129	0	
0.000964792	-0.0114368	0	
0.000889096	-0.0118614	0	
0.00079893	-0.0122859	0	
0.000692469	-0.0127093	0	
0.000567483	-0.0131304	0	
0.000420646	-0.0135453	0	
0.00011707	-0.0135543	0	
-0.000184162	-0.0135527	0	
-0.000487738	-0.0135403	0	
3.56841e-005	-0.000664271	0	
3.74312e-005	-0.000665837	0	
3.91783e-005	-0.000667479	0	
4.09254e-005	-0.000669196	0	
0.000171838	-0.000954433	0	
0.000293496	-0.00124974	0	
0.000405873	-0.00155296	0	
0.000509538	-0.00186332	0	
0.00060511	-0.00218037	0	
0.000693151	-0.0025037	0	
0.000774161	-0.00283298	0	
0.0008486	-0.00316795	0	
0.000916837	-0.00350831	0	
0.000979206	-0.00385385	0	
0.00103598	-0.00420436	0	
0.00108737	-0.00455968	0	
0.00113356	-0.00491964	0	
0.00117464	-0.00528411	0	
0.00121066	-0.00565293	0	
0.00124161	-0.00602598	0	
0.00126742	-0.00640314	0	
0.00128796	-0.00678426	0	
0.00130302	-0.00716921	0	
0.00131234	-0.00755785	0	
0.00131558	-0.00795003	0	
0.0013123	-0.00834555	0	
0.00130201	-0.00874421	0	
0.00128409	-0.00914579	0	
0.00125782	-0.00955	0	
0.00122238	-0.00995654	0	
0.00117679	-0.010365	0	
0.00111989	-0.010775	0	
0.00105041	-0.0111859	0	
0.000966864	-0.0115972	0	
0.000867549	-0.0120082	0	
0.000750525	-0.0124181	0	
0.000613452	-0.0128255	0	
0.000452845	-0.0132268	0	
0.00012525	-0.013235	0	
-0.000200002	-0.0132334	0	
-0.000527597	-0.0132219	0	
3.92525e-005	-0.000666105	0	
4.11743e-005	-0.000667672	0	
4.30961e-005	-0.000669313	0	
4.5018e-005	-0.00067103	0	
0.000186886	-0.000951425	0	
0.000318732	-0.00124146	0	
0.000440523	-0.00153904	0	
0.000552868	-0.00184341	0	
0.000656432	-0.00215413	0	
0.000751822	-0.00247081	0	
0.000839578	-0.00279314	0	
0.000920189	-0.00312085	0	
0.000994061	-0.00345367	0	
0.00106154	-0.00379136	0	
0.00112293	-0.00413374	0	
0.00117847	-0.00448064	0	
0.00122832	-0.00483189	0	
0.0012726	-0.00518733	0	
0.00131136	-0.00554684	0	
0.00134459	-0.00591027	0	
0.00137221	-0.00627748	0	
0.00139408	-0.00664835	0	
0.00140998	-0.00702272	0	
0.00141961	-0.00740046	0	
0.00142261	-0.00778139	0	
0.00141853	-0.00816533	0	
0.0014068	-0.00855209	0	
0.00138678	-0.00894141	0	
0.00135769	-0.00933305	0	
0.00131864	-0.00972667	0	
0.00126857	-0.0101219	0	
0.00120627	-0.0105184	0	
0.00113036	-0.0109155	0	
0.00103929	-0.0113128	0	
0.000931238	-0.0117096	0	
0.000804194	-0.0121051	0	
0.000655699	-0.0124982	0	
0.000482155	-0.0128853	0	
0.000132466	-0.0128927	0	
-0.000214879	-0.012891	0	
-0.000564568	-0.0128803	0	
4.28208e-005	-0.000668114	0	
4.49174e-005	-0.000669681	0	
4.7014e-005	-0.000671323	0	
4.91106e-005	-0.000673039	0	
0.000201359	-0.000948222	0	
0.000342863	-0.00123259	0	
0.000473578	-0.0015241	0	
0.000594149	-0.00182202	0	
0.000705288	-0.00212595	0	
0.000807637	-0.0024355	0	
0.000901774	-0.00275036	0	
0.000988223	-0.00307028	0	
0.00106741	-0.003395	0	
0.00113971	-0.00372428	0	
0.00120544	-0.00405795	0	
0.00126484	-0.00439581	0	
0.00131811	-0.00473772	0	
0.00136536	-0.0050835	0	
0.00140664	-0.00543304	0	
0.00144194	-0.00578616	0	
0.00147118	-0.00614276	0	
0.0014942	-0.00650266	0	
0.00151078	-0.00686574	0	
0.00152059	-0.00723184	0	
0.00152325	-0.00760079	0	
0.00151827	-0.00797242	0	
0.00150506	-0.0083465	0	
0.00148291	-0.00872282	0	
0.00145102	-0.00910111	0	
0.00140842	-0.00948108	0	
0.00135401	-0.00986236	0	
0.0012865	-0.0102445	0	
0.00120444	-0.0106272	0	
0.00110619	-0.0110098	0	
0.000989875	-0.0113917	0	
0.000853387	-0.0117722	0	
0.000694195	-0.0121503	0	
0.000508576	-0.0125226	0	
0.00013872	-0.0125292	0	
-0.000228794	-0.0125275	0	
-0.000598651	-0.0125177	0	
4.63892e-005	-0.000670298	0	
4.86605e-005	-0.000671865	0	
5.09319e-005	-0.000673507	0	
5.32032e-005	-0.000675223	0	
0.000215223	-0.000944848	0	
0.00036582	-0.00122318	0	
0.000504936	-0.00150822	0	
0.000633255	-0.00179928	0	
0.000751522	-0.00209597	0	
0.000860419	-0.00239793	0	
0.000960552	-0.00270485	0	
0.00105247	-0.0030165	0	
0.00113664	-0.0033326	0	
0.00121344	-0.00365295	0	
0.00128321	-0.00397735	0	
0.0013462	-0.00430563	0	
0.00140262	-0.00463761	0	
0.00145259	-0.00497316	0	
0.00149616	-0.00531211	0	
0.00153332	-0.00565432	0	
0.00156398	-0.00599966	0	
0.00158798	-0.00634796	0	
0.00160508	-0.0066991	0	
0.00161494	-0.0070529	0	
0.00161715	-0.0074092	0	
0.00161119	-0.00776782	0	
0.00159644	-0.00812856	0	
0.00157217	-0.00849119	0	
0.00153751	-0.00885546	0	
0.00149146	-0.00922108	0	
0.00143286	-0.00958774	0	
0.00136036	-0.00995501	0	
0.00127245	-0.0103225	0	
0.00116743	-0.0106898	0	
0.00104335	-0.0110562	0	
0.000898042	-0.0114212	0	
0.0007289	-0.0117838	0	
0.000532109	-0.0121407	0	
0.00014401	-0.0121465	0	
-0.000241745	-0.0121449	0	
-0.000629844	-0.0121358	0	
4.99575e-005	-0.000672657	0	
5.24036e-005	-0.000674224	0	
5.48497e-005	-0.000675865	0	
5.72958e-005	-0.000677582	0	
0.000228443	-0.000941328	0	
0.000387539	-0.00121327	0	
0.00053451	-0.00149148	0	
0.000670067	-0.0017753	0	
0.000794997	-0.00206435	0	
0.000910003	-0.0023583	0	
0.00101573	-0.00265684	0	
0.00111275	-0.00295976	0	
0.00120153	-0.00326679	0	
0.0012825	-0.00357772	0	
0.00135599	-0.00389236	0	
0.00142229	-0.00421053	0	
0.00148158	-0.00453208	0	
0.00153401	-0.00485684	0	
0.00157963	-0.00518467	0	
0.00161843	-0.00551541	0	
0.00165032	-0.00584892	0	
0.00167511	-0.00618505	0	
0.00169257	-0.00652365	0	
0.00170234	-0.00686456	0	
0.001704	-0.00720761	0	
0.00169699	-0.00755263	0	
0.00168067	-0.00789941	0	
0.00165428	-0.00824774	0	
0.00161691	-0.00859738	0	
0.00156752	-0.00894807	0	
0.0015049	-0.0092995	0	
0.00142766	-0.00965129	0	
0.00133424	-0.0100031	0	
0.00122288	-0.0103545	0	
0.00109157	-0.0107049	0	
0.000938097	-0.0110539	0	
0.000759792	-0.0114004	0	
0.000552752	-0.0117416	0	
0.000148337	-0.0117465	0	
-0.000253733	-0.0117449	0	
-0.000658148	-0.0117367	0	
5.35258e-005	-0.00067519	0	
5.61467e-005	-0.000676757	0	
5.87676e-005	-0.000678399	0	
6.13885e-005	-0.000680115	0	
0.000240993	-0.000937688	0	
0.000407964	-0.00120293	0	
0.000562217	-0.00147397	0	
0.000704487	-0.0017502	0	
0.000835585	-0.00203124	0	
0.000956251	-0.00231679	0	
0.00106714	-0.00260657	0	
0.00116886	-0.00290034	0	
0.0012619	-0.00319787	0	
0.00134668	-0.00349895	0	
0.00142358	-0.00380338	0	
0.00149286	-0.004111	0	
0.00155475	-0.00442164	0	
0.00160938	-0.00473514	0	
0.0016568	-0.00505135	0	
0.00169701	-0.00537012	0	
0.00172991	-0.0056913	0	
0.00175533	-0.00601474	0	
0.00177298	-0.00634028	0	
0.00178254	-0.00666778	0	
0.00178353	-0.00699705	0	
0.0017754	-0.00732793	0	
0.00175749	-0.00766022	0	
0.00172899	-0.00799372	0	
0.00168898	-0.0083282	0	
0.00163638	-0.00866343	0	
0.00156995	-0.00899912	0	
0.00148824	-0.00933492	0	
0.00138967	-0.00967052	0	
0.00127243	-0.0100056	0	
0.00113445	-0.0103395	0	
0.000973504	-0.010672	0	
0.000786844	-0.0110021	0	
0.000570507	-0.0113271	0	
0.000151702	-0.0113312	0	
-0.000264759	-0.0113296	0	
-0.000683564	-0.0113222	0	
5.70941e-005	-0.000677899	0	
5.98898e-005	-0.000679465	0	
6.26854e-005	-0.000681107	0	
6.54811e-005	-0.000682824	0	
0.000252846	-0.000933955	0	
0.00042705	-0.0011922	0	
0.000587991	-0.00145578	0	
0.000736422	-0.00172409	0	
0.000873185	-0.00199681	0	
0.000999032	-0.00227361	0	
0.00111465	-0.00255426	0	
0.00122066	-0.00283853	0	
0.00131757	-0.00312618	0	
0.00140581	-0.00341701	0	
0.00148577	-0.00371084	0	
0.00155774	-0.0040075	0	
0.00162192	-0.00430681	0	
0.00167847	-0.00460863	0	
0.00172745	-0.0049128	0	
0.00176884	-0.00521916	0	
0.00180255	-0.00552757	0	
0.00182839	-0.00583787	0	
0.00184609	-0.00614991	0	
0.00185529	-0.00646353	0	
0.00185552	-0.00677856	0	
0.00184622	-0.00709484	0	
0.00182669	-0.00741218	0	
0.00179611	-0.00773039	0	
0.00175354	-0.00804926	0	
0.00169787	-0.00836857	0	
0.00162784	-0.00868807	0	
0.00154196	-0.00900745	0	
0.00143863	-0.00932644	0	
0.00131599	-0.0096447	0	
0.00117194	-0.00996184	0	
0.00100422	-0.0102775	0	
0.000810039	-0.0105908	0	
0.000585373	-0.0108992	0	
0.000154104	-0.0109025	0	
-0.000274822	-0.0109008	0	
-0.00070609	-0.0108942	0	
6.06624e-005	-0.000680782	0	
6.36328e-005	-0.000682348	0	
6.66033e-005	-0.00068399	0	
6.95738e-005	-0.000685707	0	
0.000263984	-0.000930155	0	
0.000444755	-0.00118116	0	
0.000611772	-0.001437	0	
0.000765802	-0.00169712	0	
0.000907702	-0.0019612	0	
0.00103825	-0.00222897	0	
0.00115815	-0.00250017	0	
0.00126802	-0.00277461	0	
0.0013684	-0.00305205	0	
0.00145974	-0.0033323	0	
0.00154242	-0.00361518	0	
0.00161674	-0.00390052	0	
0.00168293	-0.00418815	0	
0.00174113	-0.00447792	0	
0.0017914	-0.00476968	0	
0.00183374	-0.00506326	0	
0.00186804	-0.00535851	0	
0.00189412	-0.00565529	0	
0.0019117	-0.00595344	0	
0.00192042	-0.00625279	0	
0.0019198	-0.0065532	0	
0.00190925	-0.00685449	0	
0.00188809	-0.00715649	0	
0.00185547	-0.00745903	0	
0.00181044	-0.00776191	0	
0.00175186	-0.00806492	0	
0.00167845	-0.00836786	0	
0.00158872	-0.00867045	0	
0.00148102	-0.00897246	0	
0.00135348	-0.00927362	0	
0.00120398	-0.00957357	0	
0.00103021	-0.009872	0	
0.000829355	-0.0101682	0	
0.000597349	-0.0104597	0	
0.000155542	-0.0104622	0	
-0.000283921	-0.0104606	0	
-0.000725728	-0.0104548	0	
6.42306e-005	-0.00068384	0	
6.73759e-005	-0.000685406	0	
7.05212e-005	-0.000687048	0	
7.36665e-005	-0.000688765	0	
0.000274389	-0.000926316	0	
0.000461048	-0.00116985	0	
0.000633514	-0.00141772	0	
0.000792562	-0.00166939	0	
0.000939065	-0.00192459	0	
0.00107381	-0.00218305	0	
0.00119752	-0.00244454	0	