# vtk DataFile Version 4.1
vtk output
ASCII
DATASET UNSTRUCTURED_GRID

POINTS	14721	float
0	0	0	
0	1.25	0	
0	2.5	0	
0	3.75	0	
0	5	0	
0	6.25	0	
0	7.5	0	
0	8.75	0	
0	10	0	
0	11.25	0	
0	12.5	0	
0	13.75	0	
0	15	0	
0	16.25	0	
0	17.5	0	
0	18.75	0	
0	20	0	
0	21.25	0	
0	22.5	0	
0	23.75	0	
0	25	0	
0	26.25	0	
0	27.5	0	
0	28.75	0	
0	30	0	
0	31.25	0	
0	32.5	0	
0	33.75	0	
0	35	0	
0	36.25	0	
0	37.5	0	
0	38.75	0	
0	40	0	
0	41.25	0	
0	42.5	0	
0	43.75	0	
0	45	0	
0	46.25	0	
0	47.5	0	
0	48.75	0	
0	50	0	
1.25	0	0	
1.25	1.25	0	
1.25	2.5	0	
1.25	3.75	0	
1.25	5	0	
1.25	6.25	0	
1.25	7.5	0	
1.25	8.75	0	
1.25	10	0	
1.25	11.25	0	
1.25	12.5	0	
1.25	13.75	0	
1.25	15	0	
1.25	16.25	0	
1.25	17.5	0	
1.25	18.75	0	
1.25	20	0	
1.25	21.25	0	
1.25	22.5	0	
1.25	23.75	0	
1.25	25	0	
1.25	26.25	0	
1.25	27.5	0	
1.25	28.75	0	
1.25	30	0	
1.25	31.25	0	
1.25	32.5	0	
1.25	33.75	0	
1.25	35	0	
1.25	36.25	0	
1.25	37.5	0	
1.25	38.75	0	
1.25	40	0	
1.25	41.25	0	
1.25	42.5	0	
1.25	43.75	0	
1.25	45	0	
1.25	46.25	0	
1.25	47.5	0	
1.25	48.75	0	
1.25	50	0	
2.5	0	0	
2.5	1.25	0	
2.5	2.5	0	
2.5	3.75	0	
2.5	5	0	
2.5	6.25	0	
2.5	7.5	0	
2.5	8.75	0	
2.5	10	0	
2.5	11.25	0	
2.5	12.5	0	
2.5	13.75	0	
2.5	15	0	
2.5	16.25	0	
2.5	17.5	0	
2.5	18.75	0	
2.5	20	0	
2.5	21.25	0	
2.5	22.5	0	
2.5	23.75	0	
2.5	25	0	
2.5	26.25	0	
2.5	27.5	0	
2.5	28.75	0	
2.5	30	0	
2.5	31.25	0	
2.5	32.5	0	
2.5	33.75	0	
2.5	35	0	
2.5	36.25	0	
2.5	37.5	0	
2.5	38.75	0	
2.5	40	0	
2.5	41.25	0	
2.5	42.5	0	
2.5	43.75	0	
2.5	45	0	
2.5	46.25	0	
2.5	47.5	0	
2.5	48.75	0	
2.5	50	0	
3.75	0	0	
3.75	1.25	0	
3.75	2.5	0	
3.75	3.75	0	
3.75	5	0	
3.75	6.25	0	
3.75	7.5	0	
3.75	8.75	0	
3.75	10	0	
3.75	11.25	0	
3.75	12.5	0	
3.75	13.75	0	
3.75	15	0	
3.75	16.25	0	
3.75	17.5	0	
3.75	18.75	0	
3.75	20	0	
3.75	21.25	0	
3.75	22.5	0	
3.75	23.75	0	
3.75	25	0	
3.75	26.25	0	
3.75	27.5	0	
3.75	28.75	0	
3.75	30	0	
3.75	31.25	0	
3.75	32.5	0	
3.75	33.75	0	
3.75	35	0	
3.75	36.25	0	
3.75	37.5	0	
3.75	38.75	0	
3.75	40	0	
3.75	41.25	0	
3.75	42.5	0	
3.75	43.75	0	
3.75	45	0	
3.75	46.25	0	
3.75	47.5	0	
3.75	48.75	0	
3.75	50	0	
5	0	0	
5	1.25	0	
5	2.5	0	
5	3.75	0	
5	5	0	
5	6.25	0	
5	7.5	0	
5	8.75	0	
5	10	0	
5	11.25	0	
5	12.5	0	
5	13.75	0	
5	15	0	
5	16.25	0	
5	17.5	0	
5	18.75	0	
5	20	0	
5	21.25	0	
5	22.5	0	
5	23.75	0	
5	25	0	
5	26.25	0	
5	27.5	0	
5	28.75	0	
5	30	0	
5	31.25	0	
5	32.5	0	
5	33.75	0	
5	35	0	
5	36.25	0	
5	37.5	0	
5	38.75	0	
5	40	0	
5	41.25	0	
5	42.5	0	
5	43.75	0	
5	45	0	
5	46.25	0	
5	47.5	0	
5	48.75	0	
5	50	0	
6.25	0	0	
6.25	1.25	0	
6.25	2.5	0	
6.25	3.75	0	
6.25	5	0	
6.25	6.25	0	
6.25	7.5	0	
6.25	8.75	0	
6.25	10	0	
6.25	11.25	0	
6.25	12.5	0	
6.25	13.75	0	
6.25	15	0	
6.25	16.25	0	
6.25	17.5	0	
6.25	18.75	0	
6.25	20	0	
6.25	21.25	0	
6.25	22.5	0	
6.25	23.75	0	
6.25	25	0	
6.25	26.25	0	
6.25	27.5	0	
6.25	28.75	0	
6.25	30	0	
6.25	31.25	0	
6.25	32.5	0	
6.25	33.75	0	
6.25	35	0	
6.25	36.25	0	
6.25	37.5	0	
6.25	38.75	0	
6.25	40	0	
6.25	41.25	0	
6.25	42.5	0	
6.25	43.75	0	
6.25	45	0	
6.25	46.25	0	
6.25	47.5	0	
6.25	48.75	0	
6.25	50	0	
7.5	0	0	
7.5	1.25	0	
7.5	2.5	0	
7.5	3.75	0	
7.5	5	0	
7.5	6.25	0	
7.5	7.5	0	
7.5	8.75	0	
7.5	10	0	
7.5	11.25	0	
7.5	12.5	0	
7.5	13.75	0	
7.5	15	0	
7.5	16.25	0	
7.5	17.5	0	
7.5	18.75	0	
7.5	20	0	
7.5	21.25	0	
7.5	22.5	0	
7.5	23.75	0	
7.5	25	0	
7.5	26.25	0	
7.5	27.5	0	
7.5	28.75	0	
7.5	30	0	
7.5	31.25	0	
7.5	32.5	0	
7.5	33.75	0	
7.5	35	0	
7.5	36.25	0	
7.5	37.5	0	
7.5	38.75	0	
7.5	40	0	
7.5	41.25	0	
7.5	42.5	0	
7.5	43.75	0	
7.5	45	0	
7.5	46.25	0	
7.5	47.5	0	
7.5	48.75	0	
7.5	50	0	
8.75	0	0	
8.75	1.25	0	
8.75	2.5	0	
8.75	3.75	0	
8.75	5	0	
8.75	6.25	0	
8.75	7.5	0	
8.75	8.75	0	
8.75	10	0	
8.75	11.25	0	
8.75	12.5	0	
8.75	13.75	0	
8.75	15	0	
8.75	16.25	0	
8.75	17.5	0	
8.75	18.75	0	
8.75	20	0	
8.75	21.25	0	
8.75	22.5	0	
8.75	23.75	0	
8.75	25	0	
8.75	26.25	0	
8.75	27.5	0	
8.75	28.75	0	
8.75	30	0	
8.75	31.25	0	
8.75	32.5	0	
8.75	33.75	0	
8.75	35	0	
8.75	36.25	0	
8.75	37.5	0	
8.75	38.75	0	
8.75	40	0	
8.75	41.25	0	
8.75	42.5	0	
8.75	43.75	0	
8.75	45	0	
8.75	46.25	0	
8.75	47.5	0	
8.75	48.75	0	
8.75	50	0	
10	0	0	
10	1.25	0	
10	2.5	0	
10	3.75	0	
10	5	0	
10	6.25	0	
10	7.5	0	
10	8.75	0	
10	10	0	
10	11.25	0	
10	12.5	0	
10	13.75	0	
10	15	0	
10	16.25	0	
10	17.5	0	
10	18.75	0	
10	20	0	
10	21.25	0	
10	22.5	0	
10	23.75	0	
10	25	0	
10	26.25	0	
10	27.5	0	
10	28.75	0	
10	30	0	
10	31.25	0	
10	32.5	0	
10	33.75	0	
10	35	0	
10	36.25	0	
10	37.5	0	
10	38.75	0	
10	40	0	
10	41.25	0	
10	42.5	0	
10	43.75	0	
10	45	0	
10	46.25	0	
10	47.5	0	
10	48.75	0	
10	50	0	
11.25	0	0	
11.25	1.25	0	
11.25	2.5	0	
11.25	3.75	0	
11.25	5	0	
11.25	6.25	0	
11.25	7.5	0	
11.25	8.75	0	
11.25	10	0	
11.25	11.25	0	
11.25	12.5	0	
11.25	13.75	0	
11.25	15	0	
11.25	16.25	0	
11.25	17.5	0	
11.25	18.75	0	
11.25	20	0	
11.25	21.25	0	
11.25	22.5	0	
11.25	23.75	0	
11.25	25	0	
11.25	26.25	0	
11.25	27.5	0	
11.25	28.75	0	
11.25	30	0	
11.25	31.25	0	
11.25	32.5	0	
11.25	33.75	0	
11.25	35	0	
11.25	36.25	0	
11.25	37.5	0	
11.25	38.75	0	
11.25	40	0	
11.25	41.25	0	
11.25	42.5	0	
11.25	43.75	0	
11.25	45	0	
11.25	46.25	0	
11.25	47.5	0	
11.25	48.75	0	
11.25	50	0	
12.5	0	0	
12.5	1.25	0	
12.5	2.5	0	
12.5	3.75	0	
12.5	5	0	
12.5	6.25	0	
12.5	7.5	0	
12.5	8.75	0	
12.5	10	0	
12.5	11.25	0	
12.5	12.5	0	
12.5	13.75	0	
12.5	15	0	
12.5	16.25	0	
12.5	17.5	0	
12.5	18.75	0	
12.5	20	0	
12.5	21.25	0	
12.5	22.5	0	
12.5	23.75	0	
12.5	25	0	
12.5	26.25	0	
12.5	27.5	0	
12.5	28.75	0	
12.5	30	0	
12.5	31.25	0	
12.5	32.5	0	
12.5	33.75	0	
12.5	35	0	
12.5	36.25	0	
12.5	37.5	0	
12.5	38.75	0	
12.5	40	0	
12.5	41.25	0	
12.5	42.5	0	
12.5	43.75	0	
12.5	45	0	
12.5	46.25	0	
12.5	47.5	0	
12.5	48.75	0	
12.5	50	0	
13.75	0	0	
13.75	1.25	0	
13.75	2.5	0	
13.75	3.75	0	
13.75	5	0	
13.75	6.25	0	
13.75	7.5	0	
13.75	8.75	0	
13.75	10	0	
13.75	11.25	0	
13.75	12.5	0	
13.75	13.75	0	
13.75	15	0	
13.75	16.25	0	
13.75	17.5	0	
13.75	18.75	0	
13.75	20	0	
13.75	21.25	0	
13.75	22.5	0	
13.75	23.75	0	
13.75	25	0	
13.75	26.25	0	
13.75	27.5	0	
13.75	28.75	0	
13.75	30	0	
13.75	31.25	0	
13.75	32.5	0	
13.75	33.75	0	
13.75	35	0	
13.75	36.25	0	
13.75	37.5	0	
13.75	38.75	0	
13.75	40	0	
13.75	41.25	0	
13.75	42.5	0	
13.75	43.75	0	
13.75	45	0	
13.75	46.25	0	
13.75	47.5	0	
13.75	48.75	0	
13.75	50	0	
15	0	0	
15	1.25	0	
15	2.5	0	
15	3.75	0	
15	5	0	
15	6.25	0	
15	7.5	0	
15	8.75	0	
15	10	0	
15	11.25	0	
15	12.5	0	
15	13.75	0	
15	15	0	
15	16.25	0	
15	17.5	0	
15	18.75	0	
15	20	0	
15	21.25	0	
15	22.5	0	
15	23.75	0	
15	25	0	
15	26.25	0	
15	27.5	0	
15	28.75	0	
15	30	0	
15	31.25	0	
15	32.5	0	
15	33.75	0	
15	35	0	
15	36.25	0	
15	37.5	0	
15	38.75	0	
15	40	0	
15	41.25	0	
15	42.5	0	
15	43.75	0	
15	45	0	
15	46.25	0	
15	47.5	0	
15	48.75	0	
15	50	0	
16.25	0	0	
16.25	1.25	0	
16.25	2.5	0	
16.25	3.75	0	
16.25	5	0	
16.25	6.25	0	
16.25	7.5	0	
16.25	8.75	0	
16.25	10	0	
16.25	11.25	0	
16.25	12.5	0	
16.25	13.75	0	
16.25	15	0	
16.25	16.25	0	
16.25	17.5	0	
16.25	18.75	0	
16.25	20	0	
16.25	21.25	0	
16.25	22.5	0	
16.25	23.75	0	
16.25	25	0	
16.25	26.25	0	
16.25	27.5	0	
16.25	28.75	0	
16.25	30	0	
16.25	31.25	0	
16.25	32.5	0	
16.25	33.75	0	
16.25	35	0	
16.25	36.25	0	
16.25	37.5	0	
16.25	38.75	0	
16.25	40	0	
16.25	41.25	0	
16.25	42.5	0	
16.25	43.75	0	
16.25	45	0	
16.25	46.25	0	
16.25	47.5	0	
16.25	48.75	0	
16.25	50	0	
17.5	0	0	
17.5	1.25	0	
17.5	2.5	0	
17.5	3.75	0	
17.5	5	0	
17.5	6.25	0	
17.5	7.5	0	
17.5	8.75	0	
17.5	10	0	
17.5	11.25	0	
17.5	12.5	0	
17.5	13.75	0	
17.5	15	0	
17.5	16.25	0	
17.5	17.5	0	
17.5	18.75	0	
17.5	20	0	
17.5	21.25	0	
17.5	22.5	0	
17.5	23.75	0	
17.5	25	0	
17.5	26.25	0	
17.5	27.5	0	
17.5	28.75	0	
17.5	30	0	
17.5	31.25	0	
17.5	32.5	0	
17.5	33.75	0	
17.5	35	0	
17.5	36.25	0	
17.5	37.5	0	
17.5	38.75	0	
17.5	40	0	
17.5	41.25	0	
17.5	42.5	0	
17.5	43.75	0	
17.5	45	0	
17.5	46.25	0	
17.5	47.5	0	
17.5	48.75	0	
17.5	50	0	
18.75	0	0	
18.75	1.25	0	
18.75	2.5	0	
18.75	3.75	0	
18.75	5	0	
18.75	6.25	0	
18.75	7.5	0	
18.75	8.75	0	
18.75	10	0	
18.75	11.25	0	
18.75	12.5	0	
18.75	13.75	0	
18.75	15	0	
18.75	16.25	0	
18.75	17.5	0	
18.75	18.75	0	
18.75	20	0	
18.75	21.25	0	
18.75	22.5	0	
18.75	23.75	0	
18.75	25	0	
18.75	26.25	0	
18.75	27.5	0	
18.75	28.75	0	
18.75	30	0	
18.75	31.25	0	
18.75	32.5	0	
18.75	33.75	0	
18.75	35	0	
18.75	36.25	0	
18.75	37.5	0	
18.75	38.75	0	
18.75	40	0	
18.75	41.25	0	
18.75	42.5	0	
18.75	43.75	0	
18.75	45	0	
18.75	46.25	0	
18.75	47.5	0	
18.75	48.75	0	
18.75	50	0	
20	0	0	
20	1.25	0	
20	2.5	0	
20	3.75	0	
20	5	0	
20	6.25	0	
20	7.5	0	
20	8.75	0	
20	10	0	
20	11.25	0	
20	12.5	0	
20	13.75	0	
20	15	0	
20	16.25	0	
20	17.5	0	
20	18.75	0	
20	20	0	
20	21.25	0	
20	22.5	0	
20	23.75	0	
20	25	0	
20	26.25	0	
20	27.5	0	
20	28.75	0	
20	30	0	
20	31.25	0	
20	32.5	0	
20	33.75	0	
20	35	0	
20	36.25	0	
20	37.5	0	
20	38.75	0	
20	40	0	
20	41.25	0	
20	42.5	0	
20	43.75	0	
20	45	0	
20	46.25	0	
20	47.5	0	
20	48.75	0	
20	50	0	
21.25	0	0	
21.25	1.25	0	
21.25	2.5	0	
21.25	3.75	0	
21.25	5	0	
21.25	6.25	0	
21.25	7.5	0	
21.25	8.75	0	
21.25	10	0	
21.25	11.25	0	
21.25	12.5	0	
21.25	13.75	0	
21.25	15	0	
21.25	16.25	0	
21.25	17.5	0	
21.25	18.75	0	
21.25	20	0	
21.25	21.25	0	
21.25	22.5	0	
21.25	23.75	0	
21.25	25	0	
21.25	26.25	0	
21.25	27.5	0	
21.25	28.75	0	
21.25	30	0	
21.25	31.25	0	
21.25	32.5	0	
21.25	33.75	0	
21.25	35	0	
21.25	36.25	0	
21.25	37.5	0	
21.25	38.75	0	
21.25	40	0	
21.25	41.25	0	
21.25	42.5	0	
21.25	43.75	0	
21.25	45	0	
21.25	46.25	0	
21.25	47.5	0	
21.25	48.75	0	
21.25	50	0	
22.5	0	0	
22.5	1.25	0	
22.5	2.5	0	
22.5	3.75	0	
22.5	5	0	
22.5	6.25	0	
22.5	7.5	0	
22.5	8.75	0	
22.5	10	0	
22.5	11.25	0	
22.5	12.5	0	
22.5	13.75	0	
22.5	15	0	
22.5	16.25	0	
22.5	17.5	0	
22.5	18.75	0	
22.5	20	0	
22.5	21.25	0	
22.5	22.5	0	
22.5	23.75	0	
22.5	25	0	
22.5	26.25	0	
22.5	27.5	0	
22.5	28.75	0	
22.5	30	0	
22.5	31.25	0	
22.5	32.5	0	
22.5	33.75	0	
22.5	35	0	
22.5	36.25	0	
22.5	37.5	0	
22.5	38.75	0	
22.5	40	0	
22.5	41.25	0	
22.5	42.5	0	
22.5	43.75	0	
22.5	45	0	
22.5	46.25	0	
22.5	47.5	0	
22.5	48.75	0	
22.5	50	0	
23.75	0	0	
23.75	1.25	0	
23.75	2.5	0	
23.75	3.75	0	
23.75	5	0	
23.75	6.25	0	
23.75	7.5	0	
23.75	8.75	0	
23.75	10	0	
23.75	11.25	0	
23.75	12.5	0	
23.75	13.75	0	
23.75	15	0	
23.75	16.25	0	
23.75	17.5	0	
23.75	18.75	0	
23.75	20	0	
23.75	21.25	0	
23.75	22.5	0	
23.75	23.75	0	
23.75	25	0	
23.75	26.25	0	
23.75	27.5	0	
23.75	28.75	0	
23.75	30	0	
[...]
POINT_DATA	14721
VECTORS u0 float
1.06507e-016	-0.00107611	0	
1.05447e-016	-0.00107859	0	
1.04387e-016	-0.00108105	0	
-4.34372e-015	-0.00155851	0	
-4.40979e-015	-0.00213652	0	
-4.07235e-015	-0.00274809	0	
-3.74894e-015	-0.00337717	0	
-3.49918e-015	-0.00403418	0	
-3.23303e-015	-0.00471735	0	
-2.95617e-015	-0.00541875	0	
-2.69957e-015	-0.00613699	0	
-2.4666e-015	-0.0068711	0	
-2.25778e-015	-0.00762074	0	
-2.07198e-015	-0.00838565	0	
-1.90806e-015	-0.00916565	0	
-1.76551e-015	-0.00996066	0	
-1.64366e-015	-0.0107707	0	
-1.54265e-015	-0.0115957	0	
-1.46241e-015	-0.0124358	0	
-1.40327e-015	-0.0132911	0	
-1.36602e-015	-0.0141617	0	
-1.35104e-015	-0.0150478	0	
-1.35982e-015	-0.0159496	0	
-1.39356e-015	-0.016867	0	
-1.45445e-015	-0.0178003	0	
-1.54446e-015	-0.0187496	0	
-1.66692e-015	-0.0197148	0	
-1.82437e-015	-0.020696	0	
-2.02111e-015	-0.021693	0	
-2.26069e-015	-0.0227057	0	
-2.54798e-015	-0.0237337	0	
-2.87946e-015	-0.0247766	0	
-3.25671e-015	-0.0258319	0	
-3.56392e-015	-0.0268973	0	
-3.92366e-015	-0.0279437	0	
-4.50238e-015	-0.0289845	0	
-5.21687e-015	-0.0300272	0	
-5.27898e-015	-0.0310666	0	
2.13226e-015	-0.0319389	0	
-8.33413e-017	-0.0319637	0	
-2.59897e-015	-0.0319472	0	
5.81527e-006	-0.00107608	0	
5.7574e-006	-0.00107856	0	
5.69953e-006	-0.00108102	0	
3.08538e-005	-0.00155803	0	
5.8259e-005	-0.00213553	0	
8.43006e-005	-0.00274649	0	
0.000108362	-0.00337492	0	
0.000131072	-0.00403118	0	
0.00015245	-0.00471355	0	
0.000172296	-0.00541407	0	
0.000190711	-0.0061314	0	
0.000207803	-0.00686456	0	
0.000223688	-0.0076132	0	
0.00023846	-0.00837706	0	
0.000252198	-0.00915597	0	
0.000264961	-0.00994984	0	
0.000276796	-0.0107586	0	
0.000287732	-0.0115824	0	
0.000297783	-0.0124212	0	
0.000306947	-0.0132751	0	
0.000315204	-0.0141444	0	
0.000322516	-0.015029	0	
0.000328829	-0.0159292	0	
0.000334074	-0.0168451	0	
0.000338158	-0.0177767	0	
0.000340961	-0.0187241	0	
0.000342338	-0.0196875	0	
0.000342118	-0.0206667	0	
0.000340096	-0.0216617	0	
0.000336041	-0.0226722	0	
0.000329692	-0.023698	0	
0.000320775	-0.0247385	0	
0.000308749	-0.0257913	0	
0.000293061	-0.0268538	0	
0.000271643	-0.027897	0	
0.000244416	-0.0289329	0	
0.000212352	-0.0299701	0	
0.000171014	-0.0309981	0	
0.000115036	-0.0318763	0	
-4.73864e-006	-0.0318987	0	
-0.000125769	-0.0318717	0	
1.16305e-005	-0.001076	0	
1.15148e-005	-0.00107848	0	
1.13991e-005	-0.00108093	0	
6.15754e-005	-0.00155659	0	
0.000116264	-0.00213257	0	
0.000168218	-0.00274171	0	
0.000216222	-0.0033682	0	
0.000261519	-0.00402218	0	
0.000304156	-0.00470214	0	
0.000343741	-0.00540008	0	
0.000380467	-0.00611468	0	
0.000414557	-0.00684498	0	
0.000446234	-0.00759063	0	
0.00047569	-0.00835135	0	
0.000503079	-0.00912699	0	
0.000528522	-0.00991744	0	
0.000552109	-0.0107227	0	
0.0005739	-0.0115427	0	
0.000593921	-0.0123776	0	
0.000612168	-0.0132275	0	
0.000628607	-0.0140924	0	
0.000643155	-0.0149726	0	
0.000655707	-0.0158682	0	
0.000666118	-0.0167792	0	
0.000674208	-0.0177058	0	
0.000679738	-0.018648	0	
0.000682418	-0.0196058	0	
0.000681902	-0.0205792	0	
0.000677786	-0.0215681	0	
0.000669599	-0.0225722	0	
0.00065682	-0.0235912	0	
0.000638882	-0.0246246	0	
0.00061466	-0.0256696	0	
0.000582968	-0.0267237	0	
0.00053948	-0.0277576	0	
0.00048407	-0.0287806	0	
0.00041787	-0.0298056	0	
0.000334197	-0.0308118	0	
0.000223489	-0.0316935	0	
-1.04576e-005	-0.0317146	0	
-0.000244744	-0.0316884	0	
1.74458e-005	-0.00107585	0	
1.72722e-005	-0.00107833	0	
1.70986e-005	-0.00108079	0	
9.20371e-005	-0.0015542	0	
0.000173763	-0.00212765	0	
0.000251371	-0.00273376	0	
0.000323084	-0.00335702	0	
0.000390714	-0.00400724	0	
0.000454385	-0.00468319	0	
0.000513487	-0.00537684	0	
0.000568325	-0.00608693	0	
0.000619217	-0.00681249	0	
0.000666505	-0.00755316	0	
0.000710469	-0.0083087	0	
0.000751339	-0.00907891	0	
0.000789295	-0.00986369	0	
0.000824471	-0.010663	0	
0.000856954	-0.0114769	0	
0.000886786	-0.0123053	0	
0.000913962	-0.0131484	0	
0.000938421	-0.0140064	0	
0.000960058	-0.0148792	0	
0.000978695	-0.0157671	0	
0.000994123	-0.0166701	0	
0.00100607	-0.0175883	0	
0.00101418	-0.0185217	0	
0.00101801	-0.0194703	0	
0.00101705	-0.0204341	0	
0.00101069	-0.0214129	0	
0.000998226	-0.0224064	0	
0.000978849	-0.0234142	0	
0.000951676	-0.0244359	0	
0.000914942	-0.0254681	0	
0.000866805	-0.0265081	0	
0.000800561	-0.0275274	0	
0.00071638	-0.0285331	0	
0.000615978	-0.0295417	0	
0.000490904	-0.0305275	0	
0.000325084	-0.0313998	0	
-1.63556e-005	-0.0314196	0	
-0.000357752	-0.0313949	0	
2.3261e-005	-0.00107565	0	
2.30296e-005	-0.00107813	0	
2.27982e-005	-0.00108059	0	
0.000122112	-0.00155087	0	
0.000230509	-0.00212078	0	
0.000333386	-0.00272268	0	
0.000428454	-0.00334146	0	
0.000518047	-0.00398643	0	
0.000602408	-0.00465682	0	
0.000680708	-0.0053445	0	
0.000753349	-0.0060483	0	
0.000820763	-0.00676727	0	
0.000883388	-0.00750105	0	
0.000941599	-0.00824936	0	
0.000995696	-0.00901204	0	
0.00104592	-0.00978895	0	
0.00109244	-0.01058	0	
0.00113538	-0.0113853	0	
0.00117478	-0.0122048	0	
0.00121065	-0.0130386	0	
0.0012429	-0.0138867	0	
0.0012714	-0.0147494	0	
0.0012959	-0.0156266	0	
0.00131613	-0.0165185	0	
0.0013317	-0.017425	0	
0.00134217	-0.0183463	0	
0.00134694	-0.0192822	0	
0.00134533	-0.0202326	0	
0.00133651	-0.0211974	0	
0.00131955	-0.0221763	0	
0.00129333	-0.0231687	0	
0.00125662	-0.0241741	0	
0.00120698	-0.0251887	0	
0.00114197	-0.0262098	0	
0.00105277	-0.0272099	0	
0.000939807	-0.028195	0	
0.000805365	-0.0291824	0	
0.000639804	-0.0301464	0	
0.000420182	-0.0310022	0	
-2.20998e-005	-0.0310206	0	
-0.000464384	-0.0309972	0	
2.90762e-005	-0.00107539	0	
2.8787e-005	-0.00107787	0	
2.84977e-005	-0.00108032	0	
0.000151676	-0.00154662	0	
0.00028626	-0.00211201	0	
0.000413897	-0.00270852	0	
0.000531852	-0.00332156	0	
0.000642915	-0.00395986	0	
0.00074752	-0.00462315	0	
0.000844585	-0.00530323	0	
0.000934639	-0.00599903	0	
0.00101819	-0.00670961	0	
0.0010958	-0.00743461	0	
0.00116791	-0.00817374	0	
0.0012349	-0.00892682	0	
0.00129706	-0.00969372	0	
0.00135461	-0.0104744	0	
0.00140769	-0.0112687	0	
0.00145636	-0.0120768	0	
0.00150061	-0.0128987	0	
0.00154035	-0.0137344	0	
0.0015754	-0.0145841	0	
0.00160548	-0.0154477	0	
0.00163022	-0.0163255	0	
0.00164915	-0.0172173	0	
0.00166169	-0.0181231	0	
0.00166712	-0.0190429	0	
0.00166459	-0.0199764	0	
0.00165306	-0.0209236	0	
0.00163132	-0.0218839	0	
0.00159799	-0.0228568	0	
0.00155142	-0.0238417	0	
0.00148854	-0.0248346	0	
0.00140649	-0.0258327	0	
0.00129458	-0.0268097	0	
0.00115319	-0.027771	0	
0.000985228	-0.0287337	0	
0.000780358	-0.0296747	0	
0.000508771	-0.0305069	0	
-2.78588e-005	-0.030524	0	
-0.000564487	-0.030502	0	
3.48914e-005	-0.00107507	0	
3.45444e-005	-0.00107755	0	
3.41973e-005	-0.00108001	0	
0.000180613	-0.00154146	0	
0.000340782	-0.00210135	0	
0.000492548	-0.00269134	0	
0.000632809	-0.00329743	0	
0.000764741	-0.00392765	0	
0.000889032	-0.00458236	0	
0.00100435	-0.00525328	0	
0.00111131	-0.00593942	0	
0.00121056	-0.00663987	0	
0.0013027	-0.00735427	0	
0.00138829	-0.00808232	0	
0.00146776	-0.00882383	0	
0.00154146	-0.00957864	0	
0.00160963	-0.0103467	0	
0.00167246	-0.0111279	0	
0.00173001	-0.0119222	0	
0.00178228	-0.0127298	0	
0.00182914	-0.0135505	0	
0.00187038	-0.0143845	0	
0.00190568	-0.0152319	0	
0.00193459	-0.0160926	0	
0.00195653	-0.0169666	0	
0.00197082	-0.0178539	0	
0.00197659	-0.0187543	0	
0.00197282	-0.0196676	0	
0.00195827	-0.0205936	0	
0.00193149	-0.0215317	0	
0.00189077	-0.0224815	0	
0.00183409	-0.0234421	0	
0.00175782	-0.0244094	0	
0.00165883	-0.0253811	0	
0.00152469	-0.0263316	0	
0.00135567	-0.0272657	0	
0.00115548	-0.0282008	0	
0.00091275	-0.0291163	0	
0.000590864	-0.0299206	0	
-3.36156e-005	-0.0299362	0	
-0.000658095	-0.0299156	0	
4.07066e-005	-0.0010747	0	
4.03018e-005	-0.00107718	0	
3.9897e-005	-0.00107963	0	
0.00020881	-0.00153542	0	
0.000393852	-0.00208886	0	
0.000568997	-0.00267121	0	
0.000730868	-0.00326916	0	
0.000882959	-0.00388997	0	
0.00102629	-0.00453468	0	
0.00115923	-0.00519491	0	
0.00128255	-0.00586981	0	
0.00139693	-0.00655848	0	
0.00150309	-0.00726054	0	
0.00160166	-0.00797569	0	
0.00169312	-0.00870372	0	
0.00177788	-0.00944447	0	
0.00185622	-0.0101978	0	
0.00192835	-0.0109637	0	
0.00199433	-0.0117421	0	
0.00205417	-0.012533	0	
0.00210772	-0.0133363	0	
0.00215473	-0.0141522	0	
0.00219483	-0.0149806	0	
0.0022275	-0.0158216	0	
0.00225208	-0.016675	0	
0.00226774	-0.0175407	0	
0.0022735	-0.0184187	0	
0.00226816	-0.0193087	0	
0.00225029	-0.0202102	0	
0.00221819	-0.0211228	0	
0.00216986	-0.022046	0	
0.00210293	-0.0229788	0	
0.0020133	-0.0239173	0	
0.00189764	-0.0248594	0	
0.00174189	-0.0257801	0	
0.00154635	-0.026684	0	
0.00131509	-0.0275881	0	
0.00103566	-0.0284737	0	
0.000666456	-0.0292496	0	
-3.93731e-005	-0.0292639	0	
-0.000745202	-0.0292447	0	
4.65217e-005	-0.00107426	0	
4.60592e-005	-0.00107674	0	
4.55966e-005	-0.0010792	0	
0.000236155	-0.00152852	0	
0.000445263	-0.00207457	0	
0.000642919	-0.00264822	0	
0.000825582	-0.00323689	0	
0.000997035	-0.00384699	0	
0.00115868	-0.00448032	0	
0.00130855	-0.00512846	0	
0.00144755	-0.00579062	0	
0.00157645	-0.00646593	0	
0.00169604	-0.007154	0	
0.001807	-0.00785454	0	
0.0019099	-0.00856731	0	
0.00200518	-0.00929211	0	
0.00209316	-0.0100288	0	
0.00217406	-0.0107774	0	
0.00224798	-0.0115377	0	
0.00231489	-0.0123097	0	
0.00237464	-0.0130934	0	
0.00242694	-0.0138887	0	
0.00247138	-0.0146957	0	
0.00250736	-0.0155144	0	
0.00253414	-0.0163445	0	
0.00255078	-0.017186	0	
0.00255616	-0.0180387	0	
0.00254891	-0.0189024	0	
0.00252741	-0.0197765	0	
0.00248975	-0.0206606	0	
0.00243365	-0.021554	0	
0.00235645	-0.0224559	0	
0.00225368	-0.0233626	0	
0.00212163	-0.0242721	0	
0.00194516	-0.0251603	0	
0.00172428	-0.0260314	0	
0.00146313	-0.0269012	0	
0.0011486	-0.0277537	0	
0.000735549	-0.0285006	0	
-4.51305e-005	-0.0285134	0	
-0.00082581	-0.0284956	0	
5.23368e-005	-0.00107377	0	
5.18166e-005	-0.00107625	0	
5.12963e-005	-0.00107871	0	
0.00026254	-0.00152081	0	
0.000494815	-0.00205855	0	
0.000713999	-0.00262236	0	
0.000916531	-0.00320069	0	
0.00110648	-0.00379897	0	
0.00128562	-0.00441959	0	
0.00145165	-0.0050543	0	
0.00160561	-0.00570233	0	
0.00174832	-0.0063628	0	
0.00188066	-0.00703535	0	
0.00200338	-0.00771965	0	
0.0021171	-0.00841545	0	
0.00222229	-0.00912256	0	
0.00231932	-0.00984082	0	
0.00240842	-0.0105701	0	
0.0024897	-0.0113103	0	
0.00256313	-0.0120614	0	
0.00262854	-0.0128233	0	
0.00268561	-0.0135959	0	
0.00273388	-0.0143793	0	
0.00277269	-0.0151732	0	
0.00280122	-0.0159776	0	
0.00281842	-0.0167923	0	
0.00282303	-0.0176172	0	
0.00281354	-0.0184518	0	
0.00278814	-0.0192958	0	
0.00274471	-0.0201486	0	
0.00268075	-0.0210095	0	
0.00259333	-0.0218777	0	
0.00247776	-0.0227497	0	
0.00232964	-0.0236236	0	
0.00213376	-0.0244777	0	
0.00188864	-0.0253133	0	
0.00159901	-0.0261465	0	
0.00125149	-0.0269633	0	
0.000798142	-0.0276799	0	
-5.08879e-005	-0.0276914	0	
-0.000899917	-0.027675	0	
5.81518e-005	-0.00107322	0	
5.7574e-005	-0.0010757	0	
5.69961e-005	-0.00107816	0	
0.000287869	-0.00151236	0	
0.000542326	-0.00204096	0	
0.000781926	-0.00259367	0	
0.00100331	-0.00316051	0	
0.00121088	-0.00374617	0	
0.0014066	-0.00435287	0	
0.00158795	-0.0049729	0	
0.00175604	-0.00560547	0	
0.0019118	-0.00624974	0	
0.00205615	-0.00690531	0	
0.00218992	-0.00757187	0	
0.00231377	-0.00824915	0	
0.00242821	-0.00893692	0	
0.00253364	-0.00963502	0	
0.00263032	-0.0103433	0	
0.00271835	-0.0110616	0	
0.0027977	-0.0117899	0	
0.00286819	-0.012528	0	
0.00292948	-0.0132759	0	
0.00298104	-0.0140334	0	
0.00302217	-0.0148005	0	
0.00305196	-0.015577	0	
0.00306928	-0.0163626	0	
0.00307274	-0.0171572	0	
0.00306068	-0.0179604	0	
0.00303115	-0.0187718	0	
0.0029818	-0.0195908	0	
0.00290994	-0.0204167	0	
0.00281243	-0.0212487	0	
0.00268443	-0.0220838	0	
0.00252085	-0.0229194	0	
0.00230704	-0.0237375	0	
0.00203882	-0.0245354	0	
0.00172249	-0.0253301	0	
0.00134434	-0.0261092	0	
0.000854234	-0.0267942	0	
-5.66452e-005	-0.0268043	0	
-0.000967525	-0.0267892	0	
6.39668e-005	-0.00107261	0	
6.33314e-005	-0.00107509	0	
6.26959e-005	-0.00107755	0	
0.00031209	-0.00150322	0	
0.000587619	-0.00202195	0	
0.000846441	-0.00256246	0	
0.00108556	-0.00311648	0	
0.00130986	-0.00368878	0	
0.00152114	-0.00428051	0	
0.00171688	-0.00488472	0	
0.00189825	-0.00550064	0	
0.00206621	-0.00612743	0	
0.00222179	-0.00676471	0	
0.00236583	-0.00741214	0	
0.00249907	-0.00806945	0	
0.00262205	-0.00873639	0	
0.00273519	-0.00941276	0	
0.00283876	-0.0100984	0	
0.00293289	-0.0107931	0	
0.00301753	-0.0114969	0	
0.00309248	-0.0122094	0	
0.00315739	-0.0129307	0	
0.00321168	-0.0136605	0	
0.0032546	-0.0143988	0	
0.00328516	-0.0151453	0	
0.00330215	-0.0158999	0	
0.00330408	-0.0166621	0	
0.00328916	-0.0174318	0	
0.00325528	-0.0182083	0	
0.00319994	-0.0189913	0	
0.00312023	-0.0197801	0	
0.00301283	-0.0205738	0	
0.00287287	-0.0213699	0	
0.00269467	-0.0221653	0	
0.00246432	-0.0229453	0	
0.00217446	-0.0237036	0	
0.00183344	-0.0244582	0	
0.00142724	-0.0251981	0	
0.000903827	-0.0258498	0	
-6.24026e-005	-0.0258585	0	
-0.00102863	-0.0258449	0	
6.97818e-005	-0.00107195	0	
6.90887e-005	-0.00107443	0	
6.83957e-005	-0.00107689	0	
0.000335132	-0.0014934	0	
0.000630532	-0.00200149	0	
0.000907306	-0.00252902	0	
0.00116301	-0.00306913	0	
0.00140307	-0.00362712	0	
0.00162885	-0.00420294	0	
0.00183799	-0.00479031	0	
0.00203168	-0.00538849	0	
0.00221096	-0.00599665	0	
0.0023769	-0.00661442	0	
0.00253041	-0.00724147	0	
0.00267224	-0.00787749	0	
0.00280299	-0.00852223	0	
0.00292311	-0.00917547	0	
0.00303286	-0.00983702	0	
0.00313239	-0.0105067	0	
0.00322165	-0.0111843	0	
0.00330043	-0.0118697	0	
0.00336833	-0.0125627	0	
0.00342476	-0.0132632	0	
0.00346891	-0.0139709	0	
0.00349975	-0.0146857	0	
0.00351597	-0.0154072	0	
0.00351601	-0.0161353	0	
0.00349795	-0.0168695	0	
0.00345956	-0.0176094	0	
0.0033982	-0.0183546	0	
0.00331078	-0.0191043	0	
0.00319378	-0.0198578	0	
0.00304241	-0.0206131	0	
0.0028505	-0.0213668	0	
0.00260503	-0.0221067	0	
0.00229527	-0.0228237	0	
0.00193184	-0.0235369	0	
0.00150021	-0.0242363	0	
0.00094692	-0.0248534	0	
-6.816e-005	-0.0248607	0	
-0.00108324	-0.0248484	0	
7.55967e-005	-0.00107123	0	
7.48461e-005	-0.00107371	0	
7.40956e-005	-0.00107616	0	
0.000356945	-0.00148294	0	
0.000670897	-0.00197965	0	
0.000964296	-0.00249341	0	
0.0012354	-0.00301881	0	
0.00149019	-0.00356165	0	
0.00172939	-0.00412066	0	
0.00195086	-0.00469026	0	
0.00215588	-0.0052697	0	
0.00234552	-0.0058582	0	
0.00252091	-0.00645538	0	
0.00268301	-0.0070609	0	
0.00283261	-0.00767446	0	
0.00297034	-0.00829579	0	
0.00309665	-0.00892465	0	
0.00321185	-0.00956081	0	
0.00331605	-0.0102041	0	
0.00340923	-0.0108542	0	
0.00349116	-0.011511	0	
0.00356142	-0.0121743	0	
0.00361939	-0.0128439	0	
0.00366422	-0.0135196	0	
0.00369483	-0.014201	0	
0.00370985	-0.0148881	0	
0.00370763	-0.0155803	0	
0.00368619	-0.0162775	0	
0.00364317	-0.0169791	0	
0.00357581	-0.0176847	0	
0.00348088	-0.0183937	0	
0.00335469	-0.0191056	0	
0.00319248	-0.0198185	0	
0.00298793	-0.0205294	0	
0.00272867	-0.0212276	0	
0.00240092	-0.0219018	0	
0.00201763	-0.0225725	0	
0.00156328	-0.0232301	0	
0.000983513	-0.0238113	0	
-7.39174e-005	-0.0238172	0	
-0.00113135	-0.0238064	0	
8.14115e-005	-0.00107045	0	
8.06035e-005	-0.00107293	0	
7.97956e-005	-0.00107538	0	
0.000377496	-0.00147191	0	
0.000708546	-0.00195638	0	
0.00101725	-0.00245579	0	
0.00130256	-0.00296585	0	
0.00157098	-0.00349281	0	
0.00182244	-0.00403423	0	
0.00205515	-0.00458522	0	
0.00227043	-0.00514504	0	
0.00246943	-0.00571295	0	
0.00265332	-0.00628857	0	
0.00282311	-0.00687156	0	
0.00297961	-0.00746163	0	
0.00312348	-0.00805848	0	
0.00325519	-0.00866186	0	
0.00337505	-0.00927151	0	
0.00348319	-0.00988718	0	
0.00357957	-0.0105087	0	
0.00366396	-0.0111357	0	
0.00373592	-0.0117681	0	
0.00379482	-0.0124055	0	
0.00383976	-0.0130478	0	
0.00386964	-0.0136946	0	
0.00388302	-0.0143458	0	
0.00387821	-0.0150009	0	
0.00385315	-0.0156596	0	
0.0038054	-0.0163215	0	
0.00373211	-0.0169862	0	
0.00362994	-0.0176532	0	
0.00349504	-0.0183218	0	
0.00332268	-0.0189911	0	
0.00310656	-0.0196581	0	
0.00283469	-0.0203135	0	
0.00249123	-0.0209441	0	
0.00209082	-0.0215712	0	
0.00161642	-0.0221858	0	
0.00101361	-0.0227302	0	
-7.96747e-005	-0.0227347	0	
-0.00117296	-0.0227252	0	
8.72263e-005	-0.00106961	0	
8.63609e-005	-0.00107209	0	
8.54956e-005	-0.00107455	0	
0.000396826	-0.00146052	0	
0.000743351	-0.00193177	0	
0.0010661	-0.00241641	0	
0.00136441	-0.00291064	0	
0.00164526	-0.00342109	0	
0.00190775	-0.00394424	0	
0.00215053	-0.00447587	0	
0.00237497	-0.00501528	0	
0.00258228	-0.00556177	0	
0.00277369	-0.00611498	0	
0.00295023	-0.00667458	0	
0.00311275	-0.00724027	0	
0.00326191	-0.00781174	0	
0.0033982	-0.0083887	0	
0.00352193	-0.00897089	0	
0.00363324	-0.00955803	0	
0.00373209	-0.0101498	0	
0.00381823	-0.0107461	0	
0.00389124	-0.0113465	0	
0.00395043	-0.0119507	0	
0.00399493	-0.0125586	0	
0.00402356	-0.0131697	0	
0.00403488	-0.0137839	0	
0.00402715	-0.0144007	0	
0.00399825	-0.0150198	0	
0.0039457	-0.0156409	0	
0.00386657	-0.0162636	0	
0.00375745	-0.0168873	0	
0.00361441	-0.0175116	0	
0.00343268	-0.0181358	0	
0.00320608	-0.0187578	0	
0.00292255	-0.0193693	0	
0.00256635	-0.0199574	0	
0.00215157	-0.0205403	0	
0.00165954	-0.0211101	0	
0.0010372	-0.0216164	0	
-8.54321e-005	-0.0216195	0	
-0.00120806	-0.0216115	0	
9.30409e-005	-0.00106872	0	
9.21183e-005	-0.0010712	0	
9.11957e-005	-0.00107365	0	
0.000414976	-0.00144887	0	
0.000775372	-0.00190626	0	
0.00111086	-0.00237575	0	
0.00142091	-0.00285374	0	
0.00171289	-0.00334711	0	
0.00198512	-0.00385135	0	
0.00223673	-0.00436292	0	
0.0024692	-0.00488121	0	
0.00268376	-0.00540556	0	
0.00288169	-0.00593564	0	
0.00306404	-0.00647113	0	
0.00323166	-0.00701169	0	
0.00338524	-0.00755702	0	
0.00352527	-0.00810682	0	
0.00365207	-0.00866078	0	
0.00376578	-0.00921859	0	
0.00386635	-0.00977997	0	
0.00395354	-0.0103446	0	
0.00402691	-0.0109122	0	
0.00408579	-0.0114824	0	
0.00412925	-0.012055	0	
0.00415613	-0.0126296	0	
0.00416497	-0.0132059	0	
0.00415398	-0.0137836	0	
0.00412104	-0.0143623	0	
0.00406362	-0.0149417	0	
0.00397876	-0.0155214	0	
0.00386301	-0.0161009	0	
0.00371238	-0.01668	0	
0.00352204	-0.0172579	0	
0.00328591	-0.0178332	0	
0.00299175	-0.0183991	0	
0.00262571	-0.0189454	0	
0.00219936	-0.019485	0	
0.00169261	-0.0200092	0	
0.00105429	-0.0204766	0	
-9.11895e-005	-0.0204783	0	
-0.00123667	-0.0204716	0	
9.88556e-005	-0.00106777	0	
9.78757e-005	-0.00107025	0	
9.68959e-005	-0.0010727	0	
0.000431967	-0.00143687	0	
0.00080472	-0.0018801	0	
0.00115162	-0.00233447	0	
0.00147213	-0.00279607	0	
0.00177374	-0.00327153	0	
0.00205432	-0.00375617	0	
0.00231351	-0.00424705	0	
0.00255286	-0.00474359	0	
0.00277361	-0.00524521	0	
0.00297705	-0.00575158	0	
0.00316424	-0.00626235	0	
0.00333606	-0.00677721	0	
0.00349318	-0.00729582	0	
0.00363611	-0.00781787	0	
0.00376517	-0.008343	0	
0.0038805	-0.00887091	0	
0.00398205	-0.00940124	0	
0.00406958	-0.00993368	0	
0.00414264	-0.0104679	0	
0.00420056	-0.0110035	0	
0.00424243	-0.0115402	0	
0.00426706	-0.0120777	0	
0.00427299	-0.0126156	0	
0.00425843	-0.0131535	0	
0.00422124	-0.0136912	0	
0.0041589	-0.0142282	0	
0.00406841	-0.0147643	0	
0.00394633	-0.0152991	0	
0.00378861	-0.0158323	0	
0.0035904	-0.0163632	0	
0.00334591	-0.016891	0	
0.00304246	-0.0174097	0	
0.00266898	-0.0179131	0	
0.00223336	-0.0184097	0	
0.00171654	-0.0188905	0	
0.00106489	-0.0193171	0	
-9.69469e-005	-0.0193174	0	
-0.00125878	-0.0193122	0	
0.00010467	-0.00106676	0	
0.000103633	-0.00106924	0	
0.000102596	-0.00107169	0	
0.000448028	-0.00142485	0	
0.000831466	-0.00185355	0	
0.00118829	-0.00229267	0	
0.0015179	-0.0027378	0	
0.00182754	-0.00319474	0	
0.00211511	-0.00365919	0	
0.00238067	-0.00412884	0	
0.00262575	-0.00460316	0	
0.00285163	-0.00508158	0	
0.00305958	-0.00556378	0	
0.00325067	-0.00604941	0	
0.00342577	-0.00653814	0	
0.00358557	-0.00702962	0	
0.00373055	-0.00752349	0	
0.00386106	-0.00801941	0	
0.00397723	-0.008517	0	
0.00407901	-0.00901591	0	
0.00416617	-0.00951576	0	
0.00423825	-0.0100162	0	
0.0042946	-0.0105168	0	
0.0043343	-0.0110173	0	
0.00435618	-0.0115173	0	
0.00435879	-0.0120164	0	
0.00434034	-0.0125142	0	
0.00429871	-0.0130105	0	
0.00423139	-0.0135049	0	
0.0041354	-0.0139972	0	
0.00400728	-0.0144869	0	
0.00384302	-0.0149738	0	
0.00363781	-0.0154576	0	