# vtk DataFile Version 4.1
vtk output
ASCII
DATASET UNSTRUCTURED_GRID

POINTS	1111	float
0	0	0	
0	1	0	
0	2	0	
0	3	0	
0	4	0	
0	5	0	
0	6	0	
0	7	0	
0	8	0	
0	9	0	
0	10	0	
1	0	0	
1	1	0	
1	2	0	
1	3	0	
1	4	0	
1	5	0	
1	6	0	
1	7	0	
1	8	0	
1	9	0	
1	10	0	
2	0	0	
2	1	0	
2	2	0	
2	3	0	
2	4	0	
2	5	0	
2	6	0	
2	7	0	
2	8	0	
2	9	0	
2	10	0	
3	0	0	
3	1	0	
3	2	0	
3	3	0	
3	4	0	
3	5	0	
3	6	0	
3	7	0	
3	8	0	
3	9	0	
3	10	0	
4	0	0	
4	1	0	
4	2	0	
4	3	0	
4	4	0	
4	5	0	
4	6	0	
4	7	0	
4	8	0	
4	9	0	
4	10	0	
5	0	0	
5	1	0	
5	2	0	
5	3	0	
5	4	0	
5	5	0	
5	6	0	
5	7	0	
5	8	0	
5	9	0	
5	10	0	
6	0	0	
6	1	0	
6	2	0	
6	3	0	
6	4	0	
6	5	0	
6	6	0	
6	7	0	
6	8	0	
6	9	0	
6	10	0	
7	0	0	
7	1	0	
7	2	0	
7	3	0	
7	4	0	
7	5	0	
7	6	0	
7	7	0	
7	8	0	
7	9	0	
7	10	0	
8	0	0	
8	1	0	
8	2	0	
8	3	0	
8	4	0	
8	5	0	
8	6	0	
8	7	0	
8	8	0	
8	9	0	
8	10	0	
9	0	0	
9	1	0	
9	2	0	
9	3	0	
9	4	0	
9	5	0	
9	6	0	
9	7	0	
9	8	0	
9	9	0	
9	10	0	
10	0	0	
10	1	0	
10	2	0	
10	3	0	
10	4	0	
10	5	0	
10	6	0	
10	7	0	
10	8	0	
10	9	0	
10	10	0	
11	0	0	
11	1	0	
11	2	0	
11	3	0	
11	4	0	
11	5	0	
11	6	0	
11	7	0	
11	8	0	
11	9	0	
11	10	0	
12	0	0	
12	1	0	
12	2	0	
12	3	0	
12	4	0	
12	5	0	
12	6	0	
12	7	0	
12	8	0	
12	9	0	
12	10	0	
13	0	0	
13	1	0	
13	2	0	
13	3	0	
13	4	0	
13	5	0	
13	6	0	
13	7	0	
13	8	0	
13	9	0	
13	10	0	
14	0	0	
14	1	0	
14	2	0	
14	3	0	
14	4	0	
14	5	0	
14	6	0	
14	7	0	
14	8	0	
14	9	0	
14	10	0	
15	0	0	
15	1	0	
15	2	0	
15	3	0	
15	4	0	
15	5	0	
15	6	0	
15	7	0	
15	8	0	
15	9	0	
15	10	0	
16	0	0	
16	1	0	
16	2	0	
16	3	0	
16	4	0	
16	5	0	
16	6	0	
16	7	0	
16	8	0	
16	9	0	
16	10	0	
17	0	0	
17	1	0	
17	2	0	
17	3	0	
17	4	0	
17	5	0	
17	6	0	
17	7	0	
17	8	0	
17	9	0	
17	10	0	
18	0	0	
18	1	0	
18	2	0	
18	3	0	
18	4	0	
18	5	0	
18	6	0	
18	7	0	
18	8	0	
18	9	0	
18	10	0	
19	0	0	
19	1	0	
19	2	0	
19	3	0	
19	4	0	
19	5	0	
19	6	0	
19	7	0	
19	8	0	
19	9	0	
19	10	0	
20	0	0	
20	1	0	
20	2	0	
20	3	0	
20	4	0	
20	5	0	
20	6	0	
20	7	0	
20	8	0	
20	9	0	
20	10	0	
21	0	0	
21	1	0	
21	2	0	
21	3	0	
21	4	0	
21	5	0	
21	6	0	
21	7	0	
21	8	0	
21	9	0	
21	10	0	
22	0	0	
22	1	0	
22	2	0	
22	3	0	
22	4	0	
22	5	0	
22	6	0	
22	7	0	
22	8	0	
22	9	0	
22	10	0	
23	0	0	
23	1	0	
23	2	0	
23	3	0	
23	4	0	
23	5	0	
23	6	0	
23	7	0	
23	8	0	
23	9	0	
23	10	0	
24	0	0	
24	1	0	
24	2	0	
24	3	0	
24	4	0	
24	5	0	
24	6	0	
24	7	0	
24	8	0	
24	9	0	
24	10	0	
25	0	0	
25	1	0	
25	2	0	
25	3	0	
25	4	0	
25	5	0	
25	6	0	
25	7	0	
25	8	0	
25	9	0	
25	10	0	
26	0	0	
26	1	0	
26	2	0	
26	3	0	
26	4	0	
26	5	0	
26	6	0	
26	7	0	
26	8	0	
26	9	0	
26	10	0	
27	0	0	
27	1	0	
27	2	0	
27	3	0	
27	4	0	
27	5	0	
27	6	0	
27	7	0	
27	8	0	
27	9	0	
27	10	0	
28	0	0	
28	1	0	
28	2	0	
28	3	0	
28	4	0	
28	5	0	
28	6	0	
28	7	0	
28	8	0	
28	9	0	
28	10	0	
29	0	0	
29	1	0	
29	2	0	
29	3	0	
29	4	0	
29	5	0	
29	6	0	
29	7	0	
29	8	0	
29	9	0	
29	10	0	
30	0	0	
30	1	0	
30	2	0	
30	3	0	
30	4	0	
30	5	0	
30	6	0	
30	7	0	
30	8	0	
30	9	0	
30	10	0	
31	0	0	
31	1	0	
31	2	0	
31	3	0	
31	4	0	
31	5	0	
31	6	0	
31	7	0	
31	8	0	
31	9	0	
31	10	0	
32	0	0	
32	1	0	
32	2	0	
32	3	0	
32	4	0	
32	5	0	
32	6	0	
32	7	0	
32	8	0	
32	9	0	
32	10	0	
33	0	0	
33	1	0	
33	2	0	
33	3	0	
33	4	0	
33	5	0	
33	6	0	
33	7	0	
33	8	0	
33	9	0	
33	10	0	
34	0	0	
34	1	0	
34	2	0	
34	3	0	
34	4	0	
34	5	0	
34	6	0	
34	7	0	
34	8	0	
34	9	0	
34	10	0	
35	0	0	
35	1	0	
35	2	0	
35	3	0	
35	4	0	
35	5	0	
35	6	0	
35	7	0	
35	8	0	
35	9	0	
35	10	0	
36	0	0	
36	1	0	
36	2	0	
36	3	0	
36	4	0	
36	5	0	
36	6	0	
36	7	0	
36	8	0	
36	9	0	
36	10	0	
37	0	0	
37	1	0	
37	2	0	
37	3	0	
37	4	0	
37	5	0	
37	6	0	
37	7	0	
37	8	0	
37	9	0	
37	10	0	
38	0	0	
38	1	0	
38	2	0	
38	3	0	
38	4	0	
38	5	0	
38	6	0	
38	7	0	
38	8	0	
38	9	0	
38	10	0	
39	0	0	
39	1	0	
39	2	0	
39	3	0	
39	4	0	
39	5	0	
39	6	0	
39	7	0	
39	8	0	
39	9	0	
39	10	0	
40	0	0	
40	1	0	
40	2	0	
40	3	0	
40	4	0	
40	5	0	
40	6	0	
40	7	0	
40	8	0	
40	9	0	
40	10	0	
41	0	0	
41	1	0	
41	2	0	
41	3	0	
41	4	0	
41	5	0	
41	6	0	
41	7	0	
41	8	0	
41	9	0	
41	10	0	
42	0	0	
42	1	0	
42	2	0	
42	3	0	
42	4	0	
42	5	0	
42	6	0	
42	7	0	
42	8	0	
42	9	0	
42	10	0	
43	0	0	
43	1	0	
43	2	0	
43	3	0	
43	4	0	
43	5	0	
43	6	0	
43	7	0	
43	8	0	
43	9	0	
43	10	0	
44	0	0	
44	1	0	
44	2	0	
44	3	0	
44	4	0	
44	5	0	
44	6	0	
44	7	0	
44	8	0	
44	9	0	
44	10	0	
45	0	0	
45	1	0	
45	2	0	
45	3	0	
45	4	0	
45	5	0	
45	6	0	
45	7	0	
45	8	0	
45	9	0	
45	10	0	
46	0	0	
46	1	0	
46	2	0	
46	3	0	
46	4	0	
46	5	0	
46	6	0	
46	7	0	
46	8	0	
46	9	0	
46	10	0	
47	0	0	
47	1	0	
47	2	0	
47	3	0	
47	4	0	
47	5	0	
47	6	0	
47	7	0	
47	8	0	
47	9	0	
47	10	0	
48	0	0	
48	1	0	
48	2	0	
48	3	0	
48	4	0	
48	5	0	
48	6	0	
48	7	0	
48	8	0	
48	9	0	
48	10	0	
49	0	0	
49	1	0	
49	2	0	
49	3	0	
49	4	0	
49	5	0	
49	6	0	
49	7	0	
49	8	0	
49	9	0	
49	10	0	
50	0	0	
50	1	0	
50	2	0	
50	3	0	
50	4	0	
50	5	0	
50	6	0	
50	7	0	
50	8	0	
50	9	0	
50	10	0	
51	0	0	
51	1	0	
51	2	0	
51	3	0	
51	4	0	
51	5	0	
51	6	0	
51	7	0	
51	8	0	
51	9	0	
51	10	0	
52	0	0	
52	1	0	
52	2	0	
52	3	0	
52	4	0	
52	5	0	
52	6	0	
52	7	0	
52	8	0	
52	9	0	
52	10	0	
53	0	0	
53	1	0	
53	2	0	
53	3	0	
53	4	0	
53	5	0	
53	6	0	
53	7	0	
53	8	0	
53	9	0	
53	10	0	
54	0	0	
54	1	0	
54	2	0	
54	3	0	
54	4	0	
54	5	0	
54	6	0	
54	7	0	
54	8	0	
54	9	0	
54	10	0	
55	0	0	
55	1	0	
55	2	0	
55	3	0	
55	4	0	
55	5	0	
55	6	0	
55	7	0	
55	8	0	
55	9	0	
55	10	0	
56	0	0	
56	1	0	
56	2	0	
56	3	0	
56	4	0	
56	5	0	
56	6	0	
56	7	0	
56	8	0	
56	9	0	
56	10	0	
57	0	0	
57	1	0	
57	2	0	
57	3	0	
57	4	0	
57	5	0	
57	6	0	
57	7	0	
57	8	0	
57	9	0	
57	10	0	
58	0	0	
58	1	0	
58	2	0	
58	3	0	
58	4	0	
58	5	0	
58	6	0	
58	7	0	
58	8	0	
58	9	0	
58	10	0	
59	0	0	
59	1	0	
59	2	0	
59	3	0	
59	4	0	
59	5	0	
59	6	0	
59	7	0	
59	8	0	
59	9	0	
59	10	0	
60	0	0	
60	1	0	
60	2	0	
60	3	0	
60	4	0	
60	5	0	
60	6	0	
60	7	0	
60	8	0	
60	9	0	
60	10	0	
61	0	0	
61	1	0	
61	2	0	
61	3	0	
61	4	0	
61	5	0	
61	6	0	
61	7	0	
61	8	0	
61	9	0	
61	10	0	
62	0	0	
62	1	0	
62	2	0	
62	3	0	
62	4	0	
62	5	0	
62	6	0	
62	7	0	
62	8	0	
62	9	0	
62	10	0	
63	0	0	
63	1	0	
63	2	0	
63	3	0	
63	4	0	
63	5	0	
63	6	0	
63	7	0	
63	8	0	
63	9	0	
63	10	0	
64	0	0	
64	1	0	
64	2	0	
64	3	0	
64	4	0	
64	5	0	
64	6	0	
64	7	0	
64	8	0	
64	9	0	
64	10	0	
65	0	0	
65	1	0	
65	2	0	
65	3	0	
65	4	0	
65	5	0	
65	6	0	
65	7	0	
65	8	0	
65	9	0	
65	10	0	
66	0	0	
66	1	0	
66	2	0	
66	3	0	
66	4	0	
66	5	0	
66	6	0	
66	7	0	
66	8	0	
66	9	0	
66	10	0	
67	0	0	
67	1	0	
67	2	0	
67	3	0	
67	4	0	
67	5	0	
67	6	0	
67	7	0	
67	8	0	
67	9	0	
67	10	0	
68	0	0	
68	1	0	
68	2	0	
68	3	0	
68	4	0	
68	5	0	
68	6	0	
68	7	0	
68	8	0	
68	9	0	
68	10	0	
69	0	0	
69	1	0	
69	2	0	
69	3	0	
69	4	0	
69	5	0	
69	6	0	
69	7	0	
69	8	0	
69	9	0	
69	10	0	
70	0	0	
70	1	0	
70	2	0	
70	3	0	
70	4	0	
70	5	0	
70	6	0	
70	7	0	
70	8	0	
70	9	0	
70	10	0	
71	0	0	
71	1	0	
71	2	0	
71	3	0	
71	4	0	
71	5	0	
71	6	0	
71	7	0	
71	8	0	
71	9	0	
71	10	0	
72	0	0	
72	1	0	
72	2	0	
72	3	0	
72	4	0	
72	5	0	
72	6	0	
72	7	0	
72	8	0	
72	9	0	
72	10	0	
73	0	0	
73	1	0	
73	2	0	
73	3	0	
73	4	0	
73	5	0	
73	6	0	
73	7	0	
73	8	0	
73	9	0	
73	10	0	
74	0	0	
74	1	0	
74	2	0	
74	3	0	
74	4	0	
74	5	0	
74	6	0	
74	7	0	
74	8	0	
74	9	0	
74	10	0	
75	0	0	
75	1	0	
75	2	0	
75	3	0	
75	4	0	
75	5	0	
75	6	0	
75	7	0	
75	8	0	
75	9	0	
75	10	0	
76	0	0	
76	1	0	
76	2	0	
76	3	0	
76	4	0	
76	5	0	
76	6	0	
76	7	0	
76	8	0	
76	9	0	
76	10	0	
77	0	0	
77	1	0	
77	2	0	
77	3	0	
77	4	0	
77	5	0	
77	6	0	
77	7	0	
77	8	0	
77	9	0	
77	10	0	
78	0	0	
78	1	0	
78	2	0	
78	3	0	
78	4	0	
78	5	0	
78	6	0	
78	7	0	
78	8	0	
78	9	0	
78	10	0	
79	0	0	
79	1	0	
79	2	0	
79	3	0	
79	4	0	
79	5	0	
79	6	0	
79	7	0	
79	8	0	
79	9	0	
79	10	0	
80	0	0	
80	1	0	
80	2	0	
80	3	0	
80	4	0	
80	5	0	
80	6	0	
80	7	0	
80	8	0	
80	9	0	
80	10	0	
81	0	0	
81	1	0	
81	2	0	
81	3	0	
81	4	0	
81	5	0	
81	6	0	
81	7	0	
81	8	0	
81	9	0	
81	10	0	
82	0	0	
82	1	0	
82	2	0	
82	3	0	
82	4	0	
82	5	0	
82	6	0	
82	7	0	
82	8	0	
82	9	0	
82	10	0	
83	0	0	
83	1	0	
83	2	0	
83	3	0	
83	4	0	
83	5	0	
83	6	0	
83	7	0	
83	8	0	
83	9	0	
83	10	0	
84	0	0	
84	1	0	
84	2	0	
84	3	0	
84	4	0	
84	5	0	
84	6	0	
84	7	0	
84	8	0	
84	9	0	
84	10	0	
85	0	0	
85	1	0	
85	2	0	
85	3	0	
85	4	0	
85	5	0	
85	6	0	
85	7	0	
85	8	0	
85	9	0	
85	10	0	
86	0	0	
86	1	0	
86	2	0	
86	3	0	
86	4	0	
86	5	0	
86	6	0	
86	7	0	
86	8	0	
86	9	0	
86	10	0	
87	0	0	
87	1	0	
87	2	0	
87	3	0	
87	4	0	
87	5	0	
87	6	0	
87	7	0	
87	8	0	
87	9	0	
87	10	0	
88	0	0	
88	1	0	
88	2	0	
88	3	0	
88	4	0	
88	5	0	
88	6	0	
88	7	0	
88	8	0	
88	9	0	
88	10	0	
89	0	0	
89	1	0	
89	2	0	
89	3	0	
89	4	0	
89	5	0	
89	6	0	
89	7	0	
89	8	0	
89	9	0	
89	10	0	
90	0	0	
90	1	0	
90	2	0	
90	3	0	
90	4	0	
90	5	0	
90	6	0	
90	7	0	
90	8	0	
90	9	0	
90	10	0	
91	0	0	
91	1	0	
91	2	0	
91	3	0	
91	4	0	
91	5	0	
91	6	0	
91	7	0	
91	8	0	
91	9	0	
91	10	0	
92	0	0	
92	1	0	
92	2	0	
92	3	0	
92	4	0	
92	5	0	
92	6	0	
92	7	0	
92	8	0	
92	9	0	
92	10	0	
93	0	0	
93	1	0	
93	2	0	
93	3	0	
93	4	0	
93	5	0	
93	6	0	
93	7	0	
93	8	0	
93	9	0	
93	10	0	
94	0	0	
94	1	0	
94	2	0	
94	3	0	
94	4	0	
94	5	0	
94	6	0	
94	7	0	
94	8	0	
94	9	0	
94	10	0	
95	0	0	
95	1	0	
95	2	0	
95	3	0	
95	4	0	
95	5	0	
95	6	0	
95	7	0	
95	8	0	
95	9	0	
95	10	0	
96	0	0	
96	1	0	
96	2	0	
96	3	0	
96	4	0	
96	5	0	
96	6	0	
96	7	0	
96	8	0	
96	9	0	
96	10	0	
97	0	0	
97	1	0	
97	2	0	
97	3	0	
97	4	0	
97	5	0	
97	6	0	
97	7	0	
97	8	0	
97	9	0	
97	10	0	
98	0	0	
98	1	0	
98	2	0	
98	3	0	
98	4	0	
98	5	0	
98	6	0	
98	7	0	
98	8	0	
98	9	0	
98	10	0	
99	0	0	
99	1	0	
99	2	0	
99	3	0	
99	4	0	
99	5	0	
99	6	0	
99	7	0	
99	8	0	
99	9	0	
99	10	0	
100	0	0	
100	1	0	
100	2	0	
100	3	0	
100	4	0	
100	5	0	
100	6	0	
100	7	0	
100	8	0	
100	9	0	
100	10	0	

CELLS 1000	5000
4	0	11	12	1	
4	1	12	13	2	
4	2	13	14	3	
4	3	14	15	4	
4	4	15	16	5	
4	5	16	17	6	
4	6	17	18	7	
4	7	18	19	8	
4	8	19	20	9	
4	9	20	21	10	
4	11	22	23	12	
4	12	23	24	13	
4	13	24	25	14	
4	14	25	26	15	
4	15	26	27	16	
4	16	27	28	17	
4	17	28	29	18	
4	18	29	30	19	
4	19	30	31	20	
4	20	31	32	21	
4	22	33	34	23	
4	23	34	35	24	
4	24	35	36	25	
4	25	36	37	26	
4	26	37	38	27	
4	27	38	39	28	
4	28	39	40	29	
4	29	40	41	30	
4	30	41	42	31	
4	31	42	43	32	
4	33	44	45	34	
4	34	45	46	35	
4	35	46	47	36	
4	36	47	48	37	
4	37	48	49	38	
4	38	49	50	39	
4	39	50	51	40	
4	40	51	52	41	
4	41	52	53	42	
4	42	53	54	43	
4	44	55	56	45	
4	45	56	57	46	
4	46	57	58	47	
4	47	58	59	48	
4	48	59	60	49	
4	49	60	61	50	
4	50	61	62	51	
4	51	62	63	52	
4	52	63	64	53	
4	53	64	65	54	
4	55	66	67	56	
4	56	67	68	57	
4	57	68	69	58	
4	58	69	70	59	
4	59	70	71	60	
4	60	71	72	61	
4	61	72	73	62	
4	62	73	74	63	
4	63	74	75	64	
4	64	75	76	65	
4	66	77	78	67	
4	67	78	79	68	
4	68	79	80	69	
4	69	80	81	70	
4	70	81	82	71	
4	71	82	83	72	
4	72	83	84	73	
4	73	84	85	74	
[...]
POINT_DATA	1111
VECTORS u float
-7.99207e-024	-4.12698e-013	0	
0.00371509	-0.000494953	0	
0.00705828	-0.000782015	0	
0.0103121	-0.000959815	0	
0.0135269	-0.00107776	0	
0.0167232	-0.00115633	0	
0.0199125	-0.00120565	0	
0.0231036	-0.00123255	0	
0.0263025	-0.00124331	0	
0.0295127	-0.00124492	0	
0.0327313	-0.0012445	0	
0.000202403	-0.0040905	0	
0.00378162	-0.00409486	0	
0.00711566	-0.0041612	0	
0.0103567	-0.00424738	0	
0.0135599	-0.004322	0	
0.0167458	-0.00437919	0	
0.0199264	-0.00441943	0	
0.0231103	-0.00444493	0	
0.0263042	-0.0044586	0	
0.0295118	-0.00446377	0	
0.0327318	-0.00446468	0	
0.000359485	-0.00753103	0	
0.00377495	-0.00756755	0	
0.00711924	-0.00756755	0	
0.01037	-0.00758607	0	
0.0135744	-0.00761589	0	
0.0167573	-0.00764552	0	
0.0199333	-0.00766938	0	
0.0231122	-0.00768545	0	
0.0263016	-0.00769358	0	
0.0295066	-0.00769497	0	
0.0327302	-0.00769315	0	
0.000480198	-0.0108801	0	
0.00380965	-0.010909	0	
0.00711486	-0.0109161	0	
0.0103665	-0.0109159	0	
0.0135738	-0.0109212	0	
0.0167567	-0.0109301	0	
0.0199301	-0.0109384	0	
0.0231051	-0.0109433	0	
0.0262903	-0.0109434	0	
0.0294929	-0.0109388	0	
0.0327201	-0.010932	0	
0.000577254	-0.0141744	0	
0.00386036	-0.0142047	0	
0.00712912	-0.0142173	0	
0.010365	-0.0142188	0	
0.0135679	-0.0142168	0	
0.0167482	-0.014215	0	
0.0199181	-0.0142128	0	
0.0230887	-0.0142085	0	
0.0262692	-0.014201	0	
0.0294685	-0.0141902	0	
0.0326962	-0.0141771	0	
0.000666904	-0.0174411	0	
0.0039197	-0.0174727	0	
0.00715821	-0.0174907	0	
0.0103734	-0.0174968	0	
0.0135643	-0.0174955	0	
0.0167368	-0.0174904	0	
0.0199002	-0.0174827	0	
0.0230642	-0.0174723	0	
0.0262383	-0.0174588	0	
0.029432	-0.0174421	0	
0.0326558	-0.0174225	0	
0.00075702	-0.0206866	0	
0.0039861	-0.0207208	0	
0.00719867	-0.0207434	0	
0.0103918	-0.0207544	0	
0.0135661	-0.0207562	0	
0.016726	-0.0207514	0	
0.0198788	-0.0207417	0	
0.0230332	-0.0207278	0	
0.0261981	-0.0207099	0	
0.029383	-0.020688	0	
0.0325981	-0.0206618	0	
0.000852385	-0.0239134	0	
0.00405983	-0.0239509	0	
0.00724843	-0.0239776	0	
0.010419	-0.0239931	0	
0.0135738	-0.0239984	0	
0.0167172	-0.0239954	0	
0.0198556	-0.0239856	0	
0.0229967	-0.0239698	0	
0.026149	-0.0239486	0	
0.0293214	-0.023922	0	
0.0325233	-0.0238895	0	
0.000955888	-0.0271209	0	
0.0041416	-0.0271622	0	
0.00730653	-0.027193	0	
0.0104538	-0.0272125	0	
0.0135869	-0.0272212	0	
0.0167107	-0.0272204	0	
0.0198312	-0.0272111	0	
0.0229556	-0.0271943	0	
0.0260916	-0.0271704	0	
0.0292476	-0.0271395	0	
0.0324322	-0.0271011	0	
0.00106937	-0.0303076	0	
0.00423209	-0.0303533	0	
0.00737257	-0.0303879	0	
0.0104953	-0.0304111	0	
0.0136047	-0.0304229	0	
0.0167062	-0.0304241	0	
0.0198056	-0.0304156	0	
0.0229098	-0.0303979	0	
0.0260261	-0.0303715	0	
0.0291621	-0.0303366	0	
0.0323258	-0.0302925	0	
0.001194	-0.0334714	0	
0.00433184	-0.0335217	0	
0.00744638	-0.0335603	0	
0.0105429	-0.0335868	0	
0.0136267	-0.0336013	0	
0.0167032	-0.0336043	0	
0.0197786	-0.0335963	0	
0.0228594	-0.0335778	0	
0.0259526	-0.033549	0	
0.0290653	-0.0335101	0	
0.0322049	-0.0334607	0	
0.00133053	-0.0366099	0	
0.00444123	-0.0366649	0	
0.00752792	-0.0367074	0	
0.0105964	-0.0367371	0	
0.0136523	-0.0367541	0	
0.0167014	-0.0367586	0	
0.01975	-0.0367508	0	
0.0228044	-0.0367313	0	
0.0258713	-0.0367001	0	
0.0289576	-0.0366573	0	
0.03207	-0.0366027	0	
0.00147943	-0.0397204	0	
0.00456054	-0.0397803	0	
0.00761717	-0.0398267	0	
0.0106554	-0.0398595	0	
0.0136811	-0.0398786	0	
0.0167004	-0.0398843	0	
0.0197194	-0.0398766	0	
0.0227444	-0.0398559	0	
0.0257821	-0.0398222	0	
0.028839	-0.0397756	0	
0.0319217	-0.0397158	0	
0.00164097	-0.0428003	0	
0.00468995	-0.0428651	0	
0.00771415	-0.0429154	0	
0.0107198	-0.0429512	0	
0.013713	-0.0429723	0	
0.0166998	-0.042979	0	
0.0196866	-0.0429712	0	
0.0226796	-0.0429491	0	
0.0256852	-0.0429129	0	
0.0287099	-0.0428624	0	
0.0317601	-0.0427975	0	
0.00181532	-0.0458469	0	
0.00482957	-0.0459167	0	
0.00781887	-0.0459709	0	
0.0107895	-0.0460096	0	
0.0137477	-0.0460326	0	
0.0166996	-0.0460401	0	
0.0196515	-0.046032	0	
0.0226097	-0.0460085	0	
0.0255805	-0.0459696	0	
0.0285704	-0.0459152	0	
0.0315855	-0.0458454	0	
0.00200258	-0.0488576	0	
0.00497948	-0.0489323	0	
0.00793133	-0.0489905	0	
0.0108644	-0.049032	0	
0.0137851	-0.0490568	0	
0.0166995	-0.0490649	0	
0.0196139	-0.0490565	0	
0.0225347	-0.0490314	0	
0.0254681	-0.0489898	0	
0.0284204	-0.0489316	0	
0.0313979	-0.0488568	0	
0.00220277	-0.0518296	0	
0.00513971	-0.0519094	0	
0.00805154	-0.0519714	0	
0.0109446	-0.0520157	0	
0.0138251	-0.0520422	0	
0.0166995	-0.0520511	0	
0.0195738	-0.0520421	0	
0.0224545	-0.0520155	0	
0.0253479	-0.0519712	0	
0.0282601	-0.0519091	0	
0.0311974	-0.0518293	0	
0.00241591	-0.0547604	0	
0.00531027	-0.0548451	0	
0.0081795	-0.054911	0	
0.0110299	-0.0549581	0	
0.0138678	-0.0549864	0	
0.0166995	-0.0549958	0	
0.0195312	-0.0549864	0	
0.0223693	-0.0549581	0	
0.0252199	-0.054911	0	
0.0280894	-0.0548451	0	
0.030984	-0.0547603	0	
0.00264202	-0.0576473	0	
0.00549119	-0.057737	0	
0.00831522	-0.0578068	0	
0.0111204	-0.0578567	0	
0.0139131	-0.0578866	0	
0.0166995	-0.0578966	0	
0.019486	-0.0578866	0	
0.0222788	-0.0578567	0	
0.0250842	-0.0578069	0	
0.0279084	-0.0577371	0	
0.0307577	-0.0576473	0	
0.00288108	-0.0604877	0	
0.00568245	-0.0605824	0	
0.00845869	-0.0606561	0	
0.0112161	-0.0607087	0	
0.013961	-0.0607403	0	
0.0166996	-0.0607509	0	
0.0194382	-0.0607404	0	
0.0221832	-0.0607088	0	
0.0249407	-0.0606562	0	
0.0277171	-0.0605825	0	
0.0305185	-0.0604878	0	
0.00313308	-0.063279	0	
0.00588407	-0.0633787	0	
0.00860992	-0.0634563	0	
0.0113169	-0.0635117	0	
0.0140114	-0.0635449	0	
0.0166996	-0.063556	0	
0.0193878	-0.063545	0	
0.0220824	-0.0635117	0	
0.0247895	-0.0634564	0	
0.0275154	-0.0633788	0	
0.0302664	-0.0632791	0	
0.00339803	-0.0660186	0	
0.00609603	-0.0661233	0	
0.0087689	-0.0662047	0	
0.0114229	-0.0662629	0	
0.0140644	-0.0662978	0	
0.0166996	-0.0663095	0	
0.0193349	-0.0662979	0	
0.0219764	-0.066263	0	
0.0246305	-0.0662048	0	
0.0273034	-0.0661234	0	
0.0300014	-0.0660187	0	
0.00367592	-0.0687039	0	
0.00631834	-0.0688136	0	
0.00893564	-0.0688989	0	
0.0115341	-0.0689599	0	
0.01412	-0.0689964	0	
0.0166997	-0.0690086	0	
0.0192793	-0.0689965	0	
0.0218652	-0.0689599	0	
0.0244637	-0.068899	0	
0.0270811	-0.0688137	0	
0.0297235	-0.068704	0	
0.00396673	-0.0713324	0	
0.006551	-0.071447	0	
0.00911014	-0.0715362	0	
0.0116504	-0.0715999	0	
0.0141782	-0.0716382	0	
0.0166997	-0.0716509	0	
0.0192212	-0.0716382	0	
0.0217489	-0.0716	0	
0.0242892	-0.0715363	0	
0.0268484	-0.0714471	0	
0.0294327	-0.0713324	0	
0.00427048	-0.0739014	0	
0.006794	-0.074021	0	
0.00929239	-0.0741141	0	
0.011772	-0.0741806	0	
0.014239	-0.0742204	0	
0.0166997	-0.0742338	0	
0.0191604	-0.0742205	0	
0.0216274	-0.0741806	0	
0.024107	-0.0741141	0	
0.0266054	-0.0740211	0	
0.0291289	-0.0739014	0	
0.00458716	-0.0764083	0	
0.00704734	-0.0765329	0	
0.0094824	-0.0766299	0	
0.0118986	-0.0766991	0	
0.0143023	-0.0767407	0	
0.0166997	-0.0767545	0	
0.0190971	-0.0767407	0	
0.0215008	-0.0766992	0	
0.023917	-0.0766299	0	
0.026352	-0.076533	0	
0.0288122	-0.0764083	0	
0.00491676	-0.0788506	0	
0.00731102	-0.0789802	0	
0.00968016	-0.0790811	0	
0.0120305	-0.0791531	0	
0.0143682	-0.0791963	0	
0.0166997	-0.0792107	0	
0.0190312	-0.0791963	0	
0.0213689	-0.0791531	0	
0.0237192	-0.0790811	0	
0.0260884	-0.0789803	0	
0.0284826	-0.0788506	0	
0.00525929	-0.0812257	0	
0.00758504	-0.0813603	0	
0.00988568	-0.081465	0	
0.0121675	-0.0815398	0	
0.0144367	-0.0815847	0	
0.0166997	-0.0815996	0	
0.0189627	-0.0815847	0	
0.0212319	-0.0815398	0	
0.0235137	-0.081465	0	
0.0258143	-0.0813603	0	
0.0281401	-0.0812257	0	
0.00561474	-0.083531	0	
0.0078694	-0.0836706	0	
0.010099	-0.0837792	0	
0.0123097	-0.0838567	0	
0.0145078	-0.0839033	0	
0.0166997	-0.0839188	0	
0.0188916	-0.0839033	0	
0.0210897	-0.0838568	0	
0.0233004	-0.0837792	0	
0.02553	-0.0836706	0	
0.0277846	-0.083531	0	
0.00598311	-0.0857639	0	
0.0081641	-0.0859085	0	
0.01032	-0.086021	0	
0.012457	-0.0861013	0	
0.0145815	-0.0861495	0	
0.0166997	-0.0861656	0	
0.0188179	-0.0861495	0	
0.0209424	-0.0861013	0	
0.0230794	-0.086021	0	
0.0252352	-0.0859085	0	
0.0274162	-0.0857639	0	
0.0063644	-0.0879219	0	
0.00846913	-0.0880714	0	
0.0105488	-0.0881878	0	
0.0126096	-0.0882709	0	
0.0146578	-0.0883207	0	
0.0166997	-0.0883373	0	
0.0187417	-0.0883207	0	
0.0207899	-0.0882709	0	
0.0228506	-0.0881878	0	
0.0249302	-0.0880715	0	
0.0270349	-0.0879219	0	
0.0067586	-0.0900023	0	
0.00878451	-0.0901568	0	
0.0107853	-0.090277	0	
0.0127673	-0.0903629	0	
0.0147366	-0.0904144	0	
0.0166997	-0.0904316	0	
0.0186628	-0.0904144	0	
0.0206322	-0.0903629	0	
0.0226141	-0.090277	0	
0.0246148	-0.0901568	0	
0.0266406	-0.0900022	0	
0.00716573	-0.0920026	0	
0.00911022	-0.0921621	0	
0.0110296	-0.0922862	0	
0.0129301	-0.0923748	0	
0.0148181	-0.092428	0	
0.0166997	-0.0924457	0	
0.0185814	-0.0924279	0	
0.0204693	-0.0923748	0	
0.0223698	-0.0922861	0	
0.0242891	-0.092162	0	
0.0262334	-0.0920025	0	
0.00758578	-0.0939202	0	
0.00944628	-0.0940847	0	
0.0112816	-0.0942126	0	
0.0130982	-0.094304	0	
0.0149021	-0.0943588	0	
0.0166997	-0.0943771	0	
0.0184974	-0.0943587	0	
0.0203013	-0.0943039	0	
0.0221177	-0.0942124	0	
0.023953	-0.0940845	0	
0.0258133	-0.0939199	0	
0.00801875	-0.0957525	0	
0.00979268	-0.095922	0	
0.0115415	-0.0960538	0	
0.0132714	-0.0961479	0	
0.0149887	-0.0962044	0	
0.0166997	-0.0962231	0	
0.0184108	-0.0962042	0	
0.0201281	-0.0961476	0	
0.0218579	-0.0960534	0	
0.0236066	-0.0959216	0	
0.0253803	-0.095752	0	
0.00846465	-0.097497	0	
0.0101494	-0.0976715	0	
0.011809	-0.0978072	0	
0.0134497	-0.097904	0	
0.0150778	-0.0979621	0	
0.0166996	-0.0979813	0	
0.0183215	-0.0979618	0	
0.0199497	-0.0979035	0	
0.0215904	-0.0978065	0	
0.0232498	-0.0976707	0	
0.0249343	-0.0974962	0	
0.00892352	-0.099151	0	
0.0105166	-0.0993305	0	
0.0120843	-0.0994701	0	
0.0136332	-0.0995697	0	
0.0151694	-0.0996293	0	
0.0166995	-0.099649	0	
0.0182296	-0.0996288	0	
0.0197661	-0.0995687	0	
0.0213151	-0.0994689	0	
0.0228828	-0.0993293	0	
0.0244754	-0.0991498	0	
0.0093954	-0.100712	0	
0.0108941	-0.100897	0	
0.0123674	-0.10104	0	
0.0138218	-0.101142	0	
0.0152636	-0.101204	0	
0.0166992	-0.101224	0	
0.018135	-0.101203	0	
0.0195772	-0.101141	0	
0.021032	-0.101038	0	
0.0225055	-0.100895	0	
0.0240037	-0.10071	0	
0.00988036	-0.102178	0	
0.0112821	-0.102367	0	
0.0126583	-0.102515	0	
0.0140154	-0.10262	0	
0.0153601	-0.102682	0	
0.0166987	-0.102703	0	
0.0180376	-0.102681	0	
0.0193831	-0.102617	0	
0.0207412	-0.102512	0	
0.0221179	-0.102364	0	
0.0235193	-0.102175	0	
0.0103785	-0.103545	0	
0.0116806	-0.10374	0	
0.0129569	-0.103891	0	
0.0142141	-0.103999	0	
0.015459	-0.104063	0	
0.0166979	-0.104083	0	
0.0179374	-0.104061	0	
0.0191837	-0.103995	0	
0.0204427	-0.103887	0	
0.0217202	-0.103735	0	
0.0230222	-0.103541	0	
0.0108901	-0.104812	0	
0.0120897	-0.105012	0	
0.0132633	-0.105167	0	
0.0144178	-0.105277	0	
0.0155601	-0.105342	0	
0.0166967	-0.105363	0	
0.0178343	-0.10534	0	
0.0189789	-0.105272	0	
0.0201364	-0.105161	0	
0.0213124	-0.105006	0	
0.0225126	-0.104807	0	
0.0114152	-0.105975	0	
0.0125096	-0.10618	0	
0.0135776	-0.106339	0	
0.0146265	-0.106452	0	
0.0156633	-0.106519	0	
0.016695	-0.10654	0	
0.017728	-0.106516	0	
0.0187685	-0.106446	0	
0.0198223	-0.106332	0	
0.0208947	-0.106173	0	
0.0219908	-0.105969	0	
0.0119542	-0.107031	0	
0.0129403	-0.107242	0	
0.0138997	-0.107405	0	
0.0148401	-0.107521	0	
0.0157688	-0.107589	0	
0.0166927	-0.107611	0	
0.0176185	-0.107586	0	
0.0185526	-0.107514	0	
0.0195005	-0.107397	0	
0.0204673	-0.107234	0	
0.0214572	-0.107025	0	
0.0125075	-0.107978	0	
0.0133819	-0.108194	0	
0.0142297	-0.108361	0	
0.0150587	-0.10848	0	
0.0158764	-0.108551	0	
0.0166898	-0.108573	0	
0.0175058	-0.108547	0	
0.0183309	-0.108474	0	
0.0191708	-0.108354	0	
0.0200302	-0.108187	0	
0.0209124	-0.107975	0	
0.0130752	-0.108812	0	
0.0138345	-0.109033	0	
0.0145676	-0.109205	0	
0.0152825	-0.109327	0	
0.0159865	-0.1094	0	
0.0166867	-0.109424	0	
0.01739	-0.109399	0	
0.0181033	-0.109325	0	
0.018833	-0.109202	0	
0.0195835	-0.109032	0	
0.0203571	-0.108815	0	
0.0136574	-0.109529	0	
0.0142981	-0.109755	0	
0.0149136	-0.109932	0	
0.0155118	-0.110058	0	
0.0160998	-0.110135	0	
0.0166841	-0.110162	0	
0.0172717	-0.110139	0	
0.0178701	-0.110065	0	
0.0184868	-0.10994	0	
0.0191272	-0.109766	0	
0.0197921	-0.109545	0	
0.0142538	-0.110124	0	
0.0147721	-0.110356	0	
0.0152675	-0.110537	0	
0.0157472	-0.110667	0	
0.0162174	-0.110749	0	
0.0166838	-0.110782	0	
0.0171525	-0.110765	0	
0.0176318	-0.110694	0	
0.0181316	-0.110569	0	
0.0186606	-0.110392	0	
0.0192186	-0.110167	0	
0.0148633	-0.110593	0	
0.0152557	-0.11083	0	
0.0156289	-0.111015	0	
0.0159889	-0.111151	0	
0.0163406	-0.111239	0	
0.0166881	-0.11128	0	
0.0170362	-0.111273	0	
0.0173915	-0.111212	0	
0.0177676	-0.111092	0	
0.0181814	-0.110914	0	
0.0186375	-0.110684	0	
0.015484	-0.110933	0	
0.0157475	-0.111173	0	
0.015997	-0.111362	0	
0.0162369	-0.111502	0	
0.0164703	-0.111597	0	
0.0166999	-0.111648	0	
0.016928	-0.111655	0	
0.0171583	-0.111615	0	
0.0173978	-0.111518	0	
0.0176848	-0.111342	0	
0.0180502	-0.111114	0	
0.0161129	-0.111138	0	
0.0162452	-0.111381	0	
0.0163702	-0.111572	0	
0.01649	-0.111716	0	
0.0166063	-0.111816	0	
0.0167201	-0.111875	0	
0.0168322	-0.111896	0	
0.0169427	-0.111881	0	
0.017053	-0.111832	0	
0.0171617	-0.111729	0	
0.0174363	-0.111462	0	
0.0167461	-0.111207	0	
0.0167461	-0.111451	0	
0.0167461	-0.111643	0	
0.0167461	-0.111788	0	
0.0167461	-0.11189	0	
0.0167461	-0.111952	0	
0.0167461	-0.11198	0	
0.0167461	-0.111978	0	
0.0167461	-0.111961	0	
0.0167461	-0.111975	0	
0.0167461	-0.11212	0	
0.0173794	-0.111138	0	
0.017247	-0.111381	0	
0.0171221	-0.111572	0	
0.0170022	-0.111716	0	
0.0168859	-0.111816	0	
0.0167721	-0.111875	0	
0.0166601	-0.111896	0	
0.0165495	-0.111881	0	
0.0164393	-0.111832	0	
0.0163306	-0.111729	0	
0.0160559	-0.111462	0	
0.0180083	-0.110933	0	
0.0177447	-0.111173	0	
0.0174952	-0.111362	0	
0.0172554	-0.111502	0	
0.0170219	-0.111597	0	
0.0167923	-0.111648	0	
0.0165642	-0.111655	0	
0.016334	-0.111615	0	
0.0160945	-0.111518	0	
0.0158075	-0.111342	0	
0.015442	-0.111114	0	
0.0186289	-0.110593	0	
0.0182365	-0.11083	0	
0.0178633	-0.111015	0	
0.0175033	-0.111151	0	
0.0171516	-0.111239	0	
0.0168041	-0.11128	0	
0.016456	-0.111273	0	
0.0161008	-0.111212	0	
0.0157246	-0.111092	0	
0.0153109	-0.110914	0	
0.0148548	-0.110684	0	
0.0192384	-0.110124	0	
0.0187201	-0.110356	0	
0.0182248	-0.110537	0	
0.017745	-0.110667	0	
0.0172748	-0.110749	0	
0.0168085	-0.110782	0	
0.0163397	-0.110765	0	
0.0158604	-0.110694	0	
0.0153606	-0.110569	0	
0.0148317	-0.110392	0	
0.0142736	-0.110167	0	
0.0198348	-0.109529	0	
0.0191942	-0.109755	0	
0.0185787	-0.109932	0	
0.0179804	-0.110058	0	
0.0173924	-0.110135	0	
0.0168081	-0.110162	0	
0.0162206	-0.110139	0	
0.0156222	-0.110065	0	
0.0150055	-0.10994	0	
0.014365	-0.109766	0	
0.0137002	-0.109545	0	
0.0204171	-0.108812	0	
0.0196577	-0.109033	0	
0.0189246	-0.109205	0	
0.0182098	-0.109327	0	
0.0175057	-0.1094	0	
0.0168056	-0.109424	0	
0.0161022	-0.109399	0	
0.0153889	-0.109325	0	
0.0146592	-0.109202	0	
0.0139087	-0.109032	0	
0.0131352	-0.108815	0	
0.0209848	-0.107978	0	
0.0201103	-0.108194	0	
0.0192626	-0.108361	0	
0.0184336	-0.10848	0	
0.0176159	-0.108551	0	
0.0168024	-0.108573	0	
0.0159864	-0.108547	0	
0.0151613	-0.108474	0	
0.0143215	-0.108354	0	
0.0134621	-0.108187	0	
0.0125798	-0.107975	0	
0.021538	-0.107031	0	
0.020552	-0.107242	0	
0.0195926	-0.107405	0	
0.0186522	-0.107521	0	
0.0177235	-0.107589	0	
0.0167995	-0.107611	0	
0.0158737	-0.107586	0	
0.0149396	-0.107514	0	
0.0139917	-0.107397	0	
0.013025	-0.107234	0	
0.012035	-0.107025	0	
0.022077	-0.105975	0	
0.0209827	-0.10618	0	
0.0199147	-0.106339	0	
0.0188658	-0.106452	0	
0.0178289	-0.106519	0	
0.0167972	-0.10654	0	
0.0157642	-0.106516	0	
0.0147237	-0.106446	0	
0.0136699	-0.106332	0	
0.0125975	-0.106173	0	
0.0115014	-0.105969	0	
0.0226022	-0.104812	0	
0.0214025	-0.105012	0	
0.0202289	-0.105167	0	
0.0190744	-0.105277	0	
0.0179322	-0.105342	0	
0.0167955	-0.105363	0	
0.015658	-0.10534	0	
0.0145134	-0.105272	0	
0.0133559	-0.105161	0	
0.0121798	-0.105006	0	
0.0109797	-0.104807	0	
0.0231137	-0.103545	0	
0.0218116	-0.10374	0	
0.0205353	-0.103891	0	
0.0192781	-0.103999	0	
0.0180333	-0.104063	0	
0.0167943	-0.104083	0	
0.0155548	-0.104061	0	
0.0143086	-0.103995	0	
0.0130496	-0.103887	0	
0.011772	-0.103735	0	
0.0104701	-0.103541	0	
0.0236119	-0.102178	0	
0.0222101	-0.102367	0	
0.0208339	-0.102515	0	
0.0194768	-0.10262	0	
0.0181322	-0.102682	0	
0.0167935	-0.102703	0	
0.0154546	-0.102681	0	
0.0141091	-0.102617	0	
0.012751	-0.102512	0	
0.0113743	-0.102364	0	
0.00997297	-0.102175	0	
0.0240968	-0.100712	0	
0.0225981	-0.100897	0	
0.0211248	-0.10104	0	
0.0196705	-0.101142	0	
0.0182287	-0.101204	0	
0.016793	-0.101224	0	
0.0153572	-0.101203	0	
0.013915	-0.101141	0	
0.0124602	-0.101038	0	
0.0109868	-0.100895	0	
0.00948849	-0.10071	0	
0.0245687	-0.099151	0	
0.0229757	-0.0993305	0	
0.0214079	-0.0994701	0	
0.0198591	-0.0995697	0	
0.0183228	-0.0996293	0	
0.0167928	-0.099649	0	
0.0152626	-0.0996288	0	
0.0137262	-0.0995687	0	
0.0121772	-0.0994689	0	
0.0106095	-0.0993293	0	
0.00901679	-0.0991498	0	
0.0250276	-0.097497	0	
0.0233428	-0.0976715	0	
0.0216832	-0.0978072	0	
0.0200425	-0.097904	0	
0.0184144	-0.0979621	0	
0.0167926	-0.0979813	0	
0.0151707	-0.0979618	0	
0.0135426	-0.0979035	0	
0.0119019	-0.0978065	0	
0.0102424	-0.0976707	0	
0.00855794	-0.0974962	0	
0.0254735	-0.0957525	0	
0.0236996	-0.095922	0	
0.0219508	-0.0960538	0	
0.0202209	-0.0961479	0	
0.0185036	-0.0962044	0	
0.0167925	-0.0962231	0	
0.0150815	-0.0962042	0	
0.0133642	-0.0961476	0	
0.0116343	-0.0960534	0	
0.00988568	-0.0959216	0	
0.00811197	-0.095752	0	
0.0259065	-0.0939202	0	
0.024046	-0.0940847	0	
0.0222106	-0.0942126	0	
0.0203941	-0.094304	0	
0.0185901	-0.0943588	0	
0.0167925	-0.0943771	0	
0.0149949	-0.0943587	0	
0.013191	-0.0943039	0	
0.0113745	-0.0942124	0	
0.00953926	-0.0940845	0	
0.00767892	-0.0939199	0	
0.0263265	-0.0920026	0	
0.024382	-0.0921621	0	
0.0224626	-0.0922862	0	
0.0205621	-0.0923748	0	
0.0186742	-0.092428	0	
0.0167925	-0.0924457	0	
0.0149108	-0.0924279	0	
0.0130229	-0.0923748	0	
0.0111225	-0.0922861	0	
0.00920318	-0.092162	0	
0.0072588	-0.0920025	0	
0.0267336	-0.0900023	0	
0.0247077	-0.0901568	0	
0.0227069	-0.090277	0	
0.020725	-0.0903629	0	
0.0187556	-0.0904144	0	
0.0167925	-0.0904316	0	
0.0148294	-0.0904144	0	
0.0128601	-0.0903629	0	
0.0108782	-0.090277	0	
0.00887744	-0.0901568	0	
0.0068516	-0.0900022	0	
0.0271278	-0.0879219	0	
0.0250231	-0.0880714	0	
0.0229435	-0.0881878	0	
0.0208827	-0.0882709	0	
0.0188344	-0.0883207	0	
0.0167925	-0.0883373	0	
0.0147506	-0.0883207	0	
0.0127024	-0.0882709	0	
0.0106416	-0.0881878	0	
0.00856205	-0.0880715	0	
0.00645735	-0.0879219	0	
0.0275091	-0.0857639	0	
0.0253281	-0.0859085	0	
0.0231723	-0.086021	0	
0.0210352	-0.0861013	0	
0.0189107	-0.0861495	0	
0.0167925	-0.0861656	0	
0.0146743	-0.0861495	0	
0.0125499	-0.0861013	0	
0.0104128	-0.086021	0	
0.00825699	-0.0859085	0	
0.00607602	-0.0857639	0	
0.0278775	-0.083531	0	
0.0256228	-0.0836706	0	
0.0233933	-0.0837792	0	
0.0211826	-0.0838567	0	
0.0189844	-0.0839033	0	
0.0167925	-0.0839188	0	
0.0146007	-0.0839033	0	
0.0124025	-0.0838568	0	
0.0101918	-0.0837792	0	
0.00796228	-0.0836706	0	
0.00570763	-0.083531	0	
0.028233	-0.0812257	0	
0.0259072	-0.0813603	0	
0.0236066	-0.081465	0	
0.0213248	-0.0815398	0	
0.0190555	-0.0815847	0	
0.0167925	-0.0815996	0	
0.0145296	-0.0815847	0	
0.0122603	-0.0815398	0	
0.00997854	-0.081465	0	
0.00767791	-0.0813603	0	
0.00535217	-0.0812257	0	
0.0285755	-0.0788506	0	
0.0261812	-0.0789802	0	
0.0238121	-0.0790811	0	
0.0214618	-0.0791531	0	
0.019124	-0.0791963	0	
0.0167925	-0.0792107	0	
0.0144611	-0.0791963	0	
0.0121233	-0.0791531	0	
0.00977302	-0.0790811	0	
0.00740388	-0.0789803	0	
0.00500963	-0.0788506	0	
0.0289051	-0.0764083	0	
0.0264449	-0.0765329	0	
0.0240098	-0.0766299	0	
0.0215936	-0.0766991	0	
0.0191899	-0.0767407	0	
0.0167925	-0.0767545	0	
0.0143952	-0.0767407	0	
0.0119915	-0.0766992	0	
0.00957526	-0.0766299	0	
0.0071402	-0.076533	0	
0.00468002	-0.0764083	0	
0.0292218	-0.0739014	0	
0.0266982	-0.074021	0	
0.0241998	-0.0741141	0	
0.0217203	-0.0741806	0	
0.0192533	-0.0742204	0	
0.0167926	-0.0742338	0	
0.0143318	-0.0742205	0	
0.0118648	-0.0741806	0	