# vtk DataFile Version 4.1
vtk output
ASCII
DATASET UNSTRUCTURED_GRID

POINTS	1111	float
0	0	0	
0	1	0	
0	2	0	
0	3	0	
0	4	0	
0	5	0	
0	6	0	
0	7	0	
0	8	0	
0	9	0	
0	10	0	
1	0	0	
1	1	0	
1	2	0	
1	3	0	
1	4	0	
1	5	0	
1	6	0	
1	7	0	
1	8	0	
1	9	0	
1	10	0	
2	0	0	
2	1	0	
2	2	0	
2	3	0	
2	4	0	
2	5	0	
2	6	0	
2	7	0	
2	8	0	
2	9	0	
2	10	0	
3	0	0	
3	1	0	
3	2	0	
3	3	0	
3	4	0	
3	5	0	
3	6	0	
3	7	0	
3	8	0	
3	9	0	
3	10	0	
4	0	0	
4	1	0	
4	2	0	
4	3	0	
4	4	0	
4	5	0	
4	6	0	
4	7	0	
4	8	0	
4	9	0	
4	10	0	
5	0	0	
5	1	0	
5	2	0	
5	3	0	
5	4	0	
5	5	0	
5	6	0	
5	7	0	
5	8	0	
5	9	0	
5	10	0	
6	0	0	
6	1	0	
6	2	0	
6	3	0	
6	4	0	
6	5	0	
6	6	0	
6	7	0	
6	8	0	
6	9	0	
6	10	0	
7	0	0	
7	1	0	
7	2	0	
7	3	0	
7	4	0	
7	5	0	
7	6	0	
7	7	0	
7	8	0	
7	9	0	
7	10	0	
8	0	0	
8	1	0	
8	2	0	
8	3	0	
8	4	0	
8	5	0	
8	6	0	
8	7	0	
8	8	0	
8	9	0	
8	10	0	
9	0	0	
9	1	0	
9	2	0	
9	3	0	
9	4	0	
9	5	0	
9	6	0	
9	7	0	
9	8	0	
9	9	0	
9	10	0	
10	0	0	
10	1	0	
10	2	0	
10	3	0	
10	4	0	
10	5	0	
10	6	0	
10	7	0	
10	8	0	
10	9	0	
10	10	0	
11	0	0	
11	1	0	
11	2	0	
11	3	0	
11	4	0	
11	5	0	
11	6	0	
11	7	0	
11	8	0	
11	9	0	
11	10	0	
12	0	0	
12	1	0	
12	2	0	
12	3	0	
12	4	0	
12	5	0	
12	6	0	
12	7	0	
12	8	0	
12	9	0	
12	10	0	
13	0	0	
13	1	0	
13	2	0	
13	3	0	
13	4	0	
13	5	0	
13	6	0	
13	7	0	
13	8	0	
13	9	0	
13	10	0	
14	0	0	
14	1	0	
14	2	0	
14	3	0	
14	4	0	
14	5	0	
14	6	0	
14	7	0	
14	8	0	
14	9	0	
14	10	0	
15	0	0	
15	1	0	
15	2	0	
15	3	0	
15	4	0	
15	5	0	
15	6	0	
15	7	0	
15	8	0	
15	9	0	
15	10	0	
16	0	0	
16	1	0	
16	2	0	
16	3	0	
16	4	0	
16	5	0	
16	6	0	
16	7	0	
16	8	0	
16	9	0	
16	10	0	
17	0	0	
17	1	0	
17	2	0	
17	3	0	
17	4	0	
17	5	0	
17	6	0	
17	7	0	
17	8	0	
17	9	0	
17	10	0	
18	0	0	
18	1	0	
18	2	0	
18	3	0	
18	4	0	
18	5	0	
18	6	0	
18	7	0	
18	8	0	
18	9	0	
18	10	0	
19	0	0	
19	1	0	
19	2	0	
19	3	0	
19	4	0	
19	5	0	
19	6	0	
19	7	0	
19	8	0	
19	9	0	
19	10	0	
20	0	0	
20	1	0	
20	2	0	
20	3	0	
20	4	0	
20	5	0	
20	6	0	
20	7	0	
20	8	0	
20	9	0	
20	10	0	
21	0	0	
21	1	0	
21	2	0	
21	3	0	
21	4	0	
21	5	0	
21	6	0	
21	7	0	
21	8	0	
21	9	0	
21	10	0	
22	0	0	
22	1	0	
22	2	0	
22	3	0	
22	4	0	
22	5	0	
22	6	0	
22	7	0	
22	8	0	
22	9	0	
22	10	0	
23	0	0	
23	1	0	
23	2	0	
23	3	0	
23	4	0	
23	5	0	
23	6	0	
23	7	0	
23	8	0	
23	9	0	
23	10	0	
24	0	0	
24	1	0	
24	2	0	
24	3	0	
24	4	0	
24	5	0	
24	6	0	
24	7	0	
24	8	0	
24	9	0	
24	10	0	
25	0	0	
25	1	0	
25	2	0	
25	3	0	
25	4	0	
25	5	0	
25	6	0	
25	7	0	
25	8	0	
25	9	0	
25	10	0	
26	0	0	
26	1	0	
26	2	0	
26	3	0	
26	4	0	
26	5	0	
26	6	0	
26	7	0	
26	8	0	
26	9	0	
26	10	0	
27	0	0	
27	1	0	
27	2	0	
27	3	0	
27	4	0	
27	5	0	
27	6	0	
27	7	0	
27	8	0	
27	9	0	
27	10	0	
28	0	0	
28	1	0	
28	2	0	
28	3	0	
28	4	0	
28	5	0	
28	6	0	
28	7	0	
28	8	0	
28	9	0	
28	10	0	
29	0	0	
29	1	0	
29	2	0	
29	3	0	
29	4	0	
29	5	0	
29	6	0	
29	7	0	
29	8	0	
29	9	0	
29	10	0	
30	0	0	
30	1	0	
30	2	0	
30	3	0	
30	4	0	
30	5	0	
30	6	0	
30	7	0	
30	8	0	
30	9	0	
30	10	0	
31	0	0	
31	1	0	
31	2	0	
31	3	0	
31	4	0	
31	5	0	
31	6	0	
31	7	0	
31	8	0	
31	9	0	
31	10	0	
32	0	0	
32	1	0	
32	2	0	
32	3	0	
32	4	0	
32	5	0	
32	6	0	
32	7	0	
32	8	0	
32	9	0	
32	10	0	
33	0	0	
33	1	0	
33	2	0	
33	3	0	
33	4	0	
33	5	0	
33	6	0	
33	7	0	
33	8	0	
33	9	0	
33	10	0	
34	0	0	
34	1	0	
34	2	0	
34	3	0	
34	4	0	
34	5	0	
34	6	0	
34	7	0	
34	8	0	
34	9	0	
34	10	0	
35	0	0	
35	1	0	
35	2	0	
35	3	0	
35	4	0	
35	5	0	
35	6	0	
35	7	0	
35	8	0	
35	9	0	
35	10	0	
36	0	0	
36	1	0	
36	2	0	
36	3	0	
36	4	0	
36	5	0	
36	6	0	
36	7	0	
36	8	0	
36	9	0	
36	10	0	
37	0	0	
37	1	0	
37	2	0	
37	3	0	
37	4	0	
37	5	0	
37	6	0	
37	7	0	
37	8	0	
37	9	0	
37	10	0	
38	0	0	
38	1	0	
38	2	0	
38	3	0	
38	4	0	
38	5	0	
38	6	0	
38	7	0	
38	8	0	
38	9	0	
38	10	0	
39	0	0	
39	1	0	
39	2	0	
39	3	0	
39	4	0	
39	5	0	
39	6	0	
39	7	0	
39	8	0	
39	9	0	
39	10	0	
40	0	0	
40	1	0	
40	2	0	
40	3	0	
40	4	0	
40	5	0	
40	6	0	
40	7	0	
40	8	0	
40	9	0	
40	10	0	
41	0	0	
41	1	0	
41	2	0	
41	3	0	
41	4	0	
41	5	0	
41	6	0	
41	7	0	
41	8	0	
41	9	0	
41	10	0	
42	0	0	
42	1	0	
42	2	0	
42	3	0	
42	4	0	
42	5	0	
42	6	0	
42	7	0	
42	8	0	
42	9	0	
42	10	0	
43	0	0	
43	1	0	
43	2	0	
43	3	0	
43	4	0	
43	5	0	
43	6	0	
43	7	0	
43	8	0	
43	9	0	
43	10	0	
44	0	0	
44	1	0	
44	2	0	
44	3	0	
44	4	0	
44	5	0	
44	6	0	
44	7	0	
44	8	0	
44	9	0	
44	10	0	
45	0	0	
45	1	0	
45	2	0	
45	3	0	
45	4	0	
45	5	0	
45	6	0	
45	7	0	
45	8	0	
45	9	0	
45	10	0	
46	0	0	
46	1	0	
46	2	0	
46	3	0	
46	4	0	
46	5	0	
46	6	0	
46	7	0	
46	8	0	
46	9	0	
46	10	0	
47	0	0	
47	1	0	
47	2	0	
47	3	0	
47	4	0	
47	5	0	
47	6	0	
47	7	0	
47	8	0	
47	9	0	
47	10	0	
48	0	0	
48	1	0	
48	2	0	
48	3	0	
48	4	0	
48	5	0	
48	6	0	
48	7	0	
48	8	0	
48	9	0	
48	10	0	
49	0	0	
49	1	0	
49	2	0	
49	3	0	
49	4	0	
49	5	0	
49	6	0	
49	7	0	
49	8	0	
49	9	0	
49	10	0	
50	0	0	
50	1	0	
50	2	0	
50	3	0	
50	4	0	
50	5	0	
50	6	0	
50	7	0	
50	8	0	
50	9	0	
50	10	0	
51	0	0	
51	1	0	
51	2	0	
51	3	0	
51	4	0	
51	5	0	
51	6	0	
51	7	0	
51	8	0	
51	9	0	
51	10	0	
52	0	0	
52	1	0	
52	2	0	
52	3	0	
52	4	0	
52	5	0	
52	6	0	
52	7	0	
52	8	0	
52	9	0	
52	10	0	
53	0	0	
53	1	0	
53	2	0	
53	3	0	
53	4	0	
53	5	0	
53	6	0	
53	7	0	
53	8	0	
53	9	0	
53	10	0	
54	0	0	
54	1	0	
54	2	0	
54	3	0	
54	4	0	
54	5	0	
54	6	0	
54	7	0	
54	8	0	
54	9	0	
54	10	0	
55	0	0	
55	1	0	
55	2	0	
55	3	0	
55	4	0	
55	5	0	
55	6	0	
55	7	0	
55	8	0	
55	9	0	
55	10	0	
56	0	0	
56	1	0	
56	2	0	
56	3	0	
56	4	0	
56	5	0	
56	6	0	
56	7	0	
56	8	0	
56	9	0	
56	10	0	
57	0	0	
57	1	0	
57	2	0	
57	3	0	
57	4	0	
57	5	0	
57	6	0	
57	7	0	
57	8	0	
57	9	0	
57	10	0	
58	0	0	
58	1	0	
58	2	0	
58	3	0	
58	4	0	
58	5	0	
58	6	0	
58	7	0	
58	8	0	
58	9	0	
58	10	0	
59	0	0	
59	1	0	
59	2	0	
59	3	0	
59	4	0	
59	5	0	
59	6	0	
59	7	0	
59	8	0	
59	9	0	
59	10	0	
60	0	0	
60	1	0	
60	2	0	
60	3	0	
60	4	0	
60	5	0	
60	6	0	
60	7	0	
60	8	0	
60	9	0	
60	10	0	
61	0	0	
61	1	0	
61	2	0	
61	3	0	
61	4	0	
61	5	0	
61	6	0	
61	7	0	
61	8	0	
61	9	0	
61	10	0	
62	0	0	
62	1	0	
62	2	0	
62	3	0	
62	4	0	
62	5	0	
62	6	0	
62	7	0	
62	8	0	
62	9	0	
62	10	0	
63	0	0	
63	1	0	
63	2	0	
63	3	0	
63	4	0	
63	5	0	
63	6	0	
63	7	0	
63	8	0	
63	9	0	
63	10	0	
64	0	0	
64	1	0	
64	2	0	
64	3	0	
64	4	0	
64	5	0	
64	6	0	
64	7	0	
64	8	0	
64	9	0	
64	10	0	
65	0	0	
65	1	0	
65	2	0	
65	3	0	
65	4	0	
65	5	0	
65	6	0	
65	7	0	
65	8	0	
65	9	0	
65	10	0	
66	0	0	
66	1	0	
66	2	0	
66	3	0	
66	4	0	
66	5	0	
66	6	0	
66	7	0	
66	8	0	
66	9	0	
66	10	0	
67	0	0	
67	1	0	
67	2	0	
67	3	0	
67	4	0	
67	5	0	
67	6	0	
67	7	0	
67	8	0	
67	9	0	
67	10	0	
68	0	0	
68	1	0	
68	2	0	
68	3	0	
68	4	0	
68	5	0	
68	6	0	
68	7	0	
68	8	0	
68	9	0	
68	10	0	
69	0	0	
69	1	0	
69	2	0	
69	3	0	
69	4	0	
69	5	0	
69	6	0	
69	7	0	
69	8	0	
69	9	0	
69	10	0	
70	0	0	
70	1	0	
70	2	0	
70	3	0	
70	4	0	
70	5	0	
70	6	0	
70	7	0	
70	8	0	
70	9	0	
70	10	0	
71	0	0	
71	1	0	
71	2	0	
71	3	0	
71	4	0	
71	5	0	
71	6	0	
71	7	0	
71	8	0	
71	9	0	
71	10	0	
72	0	0	
72	1	0	
72	2	0	
72	3	0	
72	4	0	
72	5	0	
72	6	0	
72	7	0	
72	8	0	
72	9	0	
72	10	0	
73	0	0	
73	1	0	
73	2	0	
73	3	0	
73	4	0	
73	5	0	
73	6	0	
73	7	0	
73	8	0	
73	9	0	
73	10	0	
74	0	0	
74	1	0	
74	2	0	
74	3	0	
74	4	0	
74	5	0	
74	6	0	
74	7	0	
74	8	0	
74	9	0	
74	10	0	
75	0	0	
75	1	0	
75	2	0	
75	3	0	
75	4	0	
75	5	0	
75	6	0	
75	7	0	
75	8	0	
75	9	0	
75	10	0	
76	0	0	
76	1	0	
76	2	0	
76	3	0	
76	4	0	
76	5	0	
76	6	0	
76	7	0	
76	8	0	
76	9	0	
76	10	0	
77	0	0	
77	1	0	
77	2	0	
77	3	0	
77	4	0	
77	5	0	
77	6	0	
77	7	0	
77	8	0	
77	9	0	
77	10	0	
78	0	0	
78	1	0	
78	2	0	
78	3	0	
78	4	0	
78	5	0	
78	6	0	
78	7	0	
78	8	0	
78	9	0	
78	10	0	
79	0	0	
79	1	0	
79	2	0	
79	3	0	
79	4	0	
79	5	0	
79	6	0	
79	7	0	
79	8	0	
79	9	0	
79	10	0	
80	0	0	
80	1	0	
80	2	0	
80	3	0	
80	4	0	
80	5	0	
80	6	0	
80	7	0	
80	8	0	
80	9	0	
80	10	0	
81	0	0	
81	1	0	
81	2	0	
81	3	0	
81	4	0	
81	5	0	
81	6	0	
81	7	0	
81	8	0	
81	9	0	
81	10	0	
82	0	0	
82	1	0	
82	2	0	
82	3	0	
82	4	0	
82	5	0	
82	6	0	
82	7	0	
82	8	0	
82	9	0	
82	10	0	
83	0	0	
83	1	0	
83	2	0	
83	3	0	
83	4	0	
83	5	0	
83	6	0	
83	7	0	
83	8	0	
83	9	0	
83	10	0	
84	0	0	
84	1	0	
84	2	0	
84	3	0	
84	4	0	
84	5	0	
84	6	0	
84	7	0	
84	8	0	
84	9	0	
84	10	0	
85	0	0	
85	1	0	
85	2	0	
85	3	0	
85	4	0	
85	5	0	
85	6	0	
85	7	0	
85	8	0	
85	9	0	
85	10	0	
86	0	0	
86	1	0	
86	2	0	
86	3	0	
86	4	0	
86	5	0	
86	6	0	
86	7	0	
86	8	0	
86	9	0	
86	10	0	
87	0	0	
87	1	0	
87	2	0	
87	3	0	
87	4	0	
87	5	0	
87	6	0	
87	7	0	
87	8	0	
87	9	0	
87	10	0	
88	0	0	
88	1	0	
88	2	0	
88	3	0	
88	4	0	
88	5	0	
88	6	0	
88	7	0	
88	8	0	
88	9	0	
88	10	0	
89	0	0	
89	1	0	
89	2	0	
89	3	0	
89	4	0	
89	5	0	
89	6	0	
89	7	0	
89	8	0	
89	9	0	
89	10	0	
90	0	0	
90	1	0	
90	2	0	
90	3	0	
90	4	0	
90	5	0	
90	6	0	
90	7	0	
90	8	0	
90	9	0	
90	10	0	
91	0	0	
91	1	0	
91	2	0	
91	3	0	
91	4	0	
91	5	0	
91	6	0	
91	7	0	
91	8	0	
91	9	0	
91	10	0	
92	0	0	
92	1	0	
92	2	0	
92	3	0	
92	4	0	
92	5	0	
92	6	0	
92	7	0	
92	8	0	
92	9	0	
92	10	0	
93	0	0	
93	1	0	
93	2	0	
93	3	0	
93	4	0	
93	5	0	
93	6	0	
93	7	0	
93	8	0	
93	9	0	
93	10	0	
94	0	0	
94	1	0	
94	2	0	
94	3	0	
94	4	0	
94	5	0	
94	6	0	
94	7	0	
94	8	0	
94	9	0	
94	10	0	
95	0	0	
95	1	0	
95	2	0	
95	3	0	
95	4	0	
95	5	0	
95	6	0	
95	7	0	
95	8	0	
95	9	0	
95	10	0	
96	0	0	
96	1	0	
96	2	0	
96	3	0	
96	4	0	
96	5	0	
96	6	0	
96	7	0	
96	8	0	
96	9	0	
96	10	0	
97	0	0	
97	1	0	
97	2	0	
97	3	0	
97	4	0	
97	5	0	
97	6	0	
97	7	0	
97	8	0	
97	9	0	
97	10	0	
98	0	0	
98	1	0	
98	2	0	
98	3	0	
98	4	0	
98	5	0	
98	6	0	
98	7	0	
98	8	0	
98	9	0	
98	10	0	
99	0	0	
99	1	0	
99	2	0	
99	3	0	
99	4	0	
99	5	0	
99	6	0	
99	7	0	
99	8	0	
99	9	0	
99	10	0	
100	0	0	
100	1	0	
100	2	0	
100	3	0	
100	4	0	
100	5	0	
100	6	0	
100	7	0	
100	8	0	
100	9	0	
100	10	0	

CELLS 1000	5000
4	0	11	12	1	
4	1	12	13	2	
4	2	13	14	3	
4	3	14	15	4	
4	4	15	16	5	
4	5	16	17	6	
4	6	17	18	7	
4	7	18	19	8	
4	8	19	20	9	
4	9	20	21	10	
4	11	22	23	12	
4	12	23	24	13	
4	13	24	25	14	
4	14	25	26	15	
4	15	26	27	16	
4	16	27	28	17	
4	17	28	29	18	
4	18	29	30	19	
4	19	30	31	20	
4	20	31	32	21	
4	22	33	34	23	
4	23	34	35	24	
4	24	35	36	25	
4	25	36	37	26	
4	26	37	38	27	
4	27	38	39	28	
4	28	39	40	29	
4	29	40	41	30	
4	30	41	42	31	
4	31	42	43	32	
4	33	44	45	34	
4	34	45	46	35	
4	35	46	47	36	
4	36	47	48	37	
4	37	48	49	38	
4	38	49	50	39	
4	39	50	51	40	
4	40	51	52	41	
4	41	52	53	42	
4	42	53	54	43	
4	44	55	56	45	
4	45	56	57	46	
4	46	57	58	47	
4	47	58	59	48	
4	48	59	60	49	
4	49	60	61	50	
4	50	61	62	51	
4	51	62	63	52	
4	52	63	64	53	
4	53	64	65	54	
4	55	66	67	56	
4	56	67	68	57	
4	57	68	69	58	
4	58	69	70	59	
4	59	70	71	60	
4	60	71	72	61	
4	61	72	73	62	
4	62	73	74	63	
4	63	74	75	64	
4	64	75	76	65	
4	66	77	78	67	
4	67	78	79	68	
4	68	79	80	69	
4	69	80	81	70	
4	70	81	82	71	
4	71	82	83	72	
4	72	83	84	73	
4	73	84	85	74	
[...]
POINT_DATA	1111
VECTORS u float
-7.03313e-027	-1.58033e-015	0	
1.02316e-005	-1.89513e-006	0	
1.90404e-005	-2.9942e-006	0	
2.75094e-005	-3.67596e-006	0	
3.58312e-005	-4.13073e-006	0	
4.40831e-005	-4.43763e-006	0	
5.23086e-005	-4.63572e-006	0	
6.05394e-005	-4.75086e-006	0	
6.87985e-005	-4.8064e-006	0	
7.70983e-005	-4.82799e-006	0	
8.54291e-005	-4.84181e-006	0	
7.75218e-007	-1.1669e-005	0	
1.04861e-005	-1.16858e-005	0	
1.92602e-005	-1.19406e-005	0	
2.76811e-005	-1.22728e-005	0	
3.59593e-005	-1.25626e-005	0	
4.4173e-005	-1.2788e-005	0	
5.23663e-005	-1.2951e-005	0	
6.0571e-005	-1.30599e-005	0	
6.88114e-005	-1.31255e-005	0	
7.71016e-005	-1.31598e-005	0	
8.54371e-005	-1.31785e-005	0	
1.3769e-006	-2.08476e-005	0	
1.04598e-005	-2.09874e-005	0	
1.92735e-005	-2.09879e-005	0	
2.77326e-005	-2.10608e-005	0	
3.60169e-005	-2.11791e-005	0	
4.42204e-005	-2.1299e-005	0	
5.23973e-005	-2.13993e-005	0	
6.05842e-005	-2.14722e-005	0	
6.88083e-005	-2.15167e-005	0	
7.70888e-005	-2.15369e-005	0	
8.54375e-005	-2.15454e-005	0	
1.83827e-006	-2.96734e-005	0	
1.05905e-005	-2.97833e-005	0	
1.92549e-005	-2.98104e-005	0	
2.77188e-005	-2.98111e-005	0	
3.6016e-005	-2.98351e-005	0	
4.42214e-005	-2.98754e-005	0	
5.23906e-005	-2.99165e-005	0	
6.05641e-005	-2.9947e-005	0	
6.87737e-005	-2.99613e-005	0	
7.70454e-005	-2.99594e-005	0	
8.54063e-005	-2.99495e-005	0	
2.20676e-006	-3.82872e-005	0	
1.07803e-005	-3.84011e-005	0	
1.93059e-005	-3.84481e-005	0	
2.77111e-005	-3.84543e-005	0	
3.5994e-005	-3.845e-005	0	
4.41921e-005	-3.84493e-005	0	
5.23508e-005	-3.84502e-005	0	
6.05097e-005	-3.84462e-005	0	
6.87032e-005	-3.84324e-005	0	
7.6963e-005	-3.84077e-005	0	
8.53246e-005	-3.83753e-005	0	
2.54345e-006	-4.67927e-005	0	
1.10003e-005	-4.69102e-005	0	
1.94113e-005	-4.69768e-005	0	
2.77398e-005	-4.69996e-005	0	
3.59798e-005	-4.69973e-005	0	
4.41519e-005	-4.69836e-005	0	
5.22889e-005	-4.69637e-005	0	
6.04261e-005	-4.6937e-005	0	
6.85975e-005	-4.69015e-005	0	
7.68372e-005	-4.68558e-005	0	
8.51832e-005	-4.67997e-005	0	
2.87743e-006	-5.52162e-005	0	
1.12436e-005	-5.53415e-005	0	
1.95573e-005	-5.54238e-005	0	
2.78048e-005	-5.54644e-005	0	
3.59854e-005	-5.54731e-005	0	
4.41138e-005	-5.54605e-005	0	
5.22151e-005	-5.54333e-005	0	
6.03195e-005	-5.5394e-005	0	
6.84589e-005	-5.53428e-005	0	
7.66669e-005	-5.52787e-005	0	
8.49799e-005	-5.51995e-005	0	
3.22602e-006	-6.3567e-005	0	
1.15106e-005	-6.37028e-005	0	
1.97357e-005	-6.37992e-005	0	
2.79012e-005	-6.38555e-005	0	
3.60125e-005	-6.38771e-005	0	
4.40834e-005	-6.38712e-005	0	
5.21354e-005	-6.38437e-005	0	
6.01945e-005	-6.37981e-005	0	
6.82901e-005	-6.37356e-005	0	
7.64531e-005	-6.36554e-005	0	
8.47167e-005	-6.35546e-005	0	
3.59932e-006	-7.1845e-005	0	
1.18033e-005	-7.1993e-005	0	
1.99421e-005	-7.21026e-005	0	
2.80239e-005	-7.21728e-005	0	
3.6059e-005	-7.22066e-005	0	
4.40619e-005	-7.22087e-005	0	
5.20523e-005	-7.21838e-005	0	
6.00539e-005	-7.21349e-005	0	
6.8093e-005	-7.20636e-005	0	
7.61979e-005	-7.19691e-005	0	
8.43979e-005	-7.18483e-005	0	
4.00343e-006	-8.00456e-005	0	
1.21234e-005	-8.0207e-005	0	
2.01744e-005	-8.03294e-005	0	
2.81694e-005	-8.04119e-005	0	
3.61221e-005	-8.04564e-005	0	
4.4048e-005	-8.04661e-005	0	
5.19663e-005	-8.04442e-005	0	
5.98988e-005	-8.03932e-005	0	
6.78695e-005	-8.03143e-005	0	
7.59038e-005	-8.02067e-005	0	
8.40277e-005	-8.00674e-005	0	
4.44188e-006	-8.81623e-005	0	
1.24722e-005	-8.83378e-005	0	
2.04314e-005	-8.84725e-005	0	
2.83352e-005	-8.85661e-005	0	
3.61993e-005	-8.862e-005	0	
4.40402e-005	-8.8636e-005	0	
5.18767e-005	-8.86166e-005	0	
5.97295e-005	-8.85635e-005	0	
6.76206e-005	-8.84774e-005	0	
7.55731e-005	-8.83574e-005	0	
8.36103e-005	-8.8201e-005	0	
4.91659e-006	-9.61874e-005	0	
1.28505e-005	-9.63773e-005	0	
2.07124e-005	-9.6524e-005	0	
2.85195e-005	-9.66279e-005	0	
3.62885e-005	-9.66897e-005	0	
4.40367e-005	-9.67109e-005	0	
5.17826e-005	-9.66932e-005	0	
5.95459e-005	-9.66375e-005	0	
6.73472e-005	-9.65442e-005	0	
7.52078e-005	-9.64124e-005	0	
8.31488e-005	-9.62398e-005	0	
5.42839e-006	-0.000104113	0	
1.32586e-005	-0.000104317	0	
2.10168e-005	-0.000104476	0	
2.87209e-005	-0.000104589	0	
3.63881e-005	-0.000104658	0	
4.40361e-005	-0.000104683	0	
5.16831e-005	-0.000104666	0	
5.93479e-005	-0.000104607	0	
6.70501e-005	-0.000104507	0	
7.48097e-005	-0.000104364	0	
8.2646e-005	-0.000104176	0	
5.9774e-006	-0.000111931	0	
1.36963e-005	-0.000112149	0	
2.13441e-005	-0.000112319	0	
2.89385e-005	-0.000112441	0	
3.64971e-005	-0.000112516	0	
4.40375e-005	-0.000112545	0	
5.15775e-005	-0.000112528	0	
5.91354e-005	-0.000112466	0	
6.673e-005	-0.000112358	0	
7.438e-005	-0.000112204	0	
8.21037e-005	-0.000112001	0	
6.56329e-006	-0.000119633	0	
1.41635e-005	-0.000119866	0	
2.16937e-005	-0.000120047	0	
2.91715e-005	-0.000120177	0	
3.66145e-005	-0.000120258	0	
4.40399e-005	-0.000120289	0	
5.14654e-005	-0.000120272	0	
5.89086e-005	-0.000120206	0	
6.63875e-005	-0.00012009	0	
7.392e-005	-0.000119925	0	
8.15237e-005	-0.000119708	0	
7.18542e-006	-0.000127212	0	
1.46595e-005	-0.000127459	0	
2.2065e-005	-0.00012765	0	
2.94194e-005	-0.000127789	0	
3.67397e-005	-0.000127875	0	
4.4043e-005	-0.000127908	0	
5.13466e-005	-0.00012789	0	
5.86675e-005	-0.000127819	0	
6.60232e-005	-0.000127697	0	
7.34307e-005	-0.000127521	0	
8.09073e-005	-0.00012729	0	
7.84299e-006	-0.00013466	0	
1.51837e-005	-0.00013492	0	
2.24575e-005	-0.000135123	0	
2.96815e-005	-0.000135269	0	
3.68722e-005	-0.000135359	0	
4.40465e-005	-0.000135395	0	
5.1221e-005	-0.000135375	0	
5.84125e-005	-0.000135301	0	
6.56376e-005	-0.000135171	0	
7.29131e-005	-0.000134984	0	
8.02555e-005	-0.00013474	0	
8.53508e-006	-0.00014197	0	
1.57354e-005	-0.000142244	0	
2.28707e-005	-0.000142456	0	
2.99574e-005	-0.00014261	0	
3.70118e-005	-0.000142705	0	
4.40501e-005	-0.000142742	0	
5.10887e-005	-0.000142721	0	
5.81438e-005	-0.000142642	0	
6.52315e-005	-0.000142505	0	
7.2368e-005	-0.000142309	0	
7.95694e-005	-0.000142052	0	
9.26073e-006	-0.000149136	0	
1.63139e-005	-0.000149422	0	
2.33039e-005	-0.000149644	0	
3.02467e-005	-0.000149805	0	
3.7158e-005	-0.000149904	0	
4.40538e-005	-0.000149943	0	
5.09498e-005	-0.000149921	0	
5.78617e-005	-0.000149838	0	
6.48053e-005	-0.000149694	0	
7.17962e-005	-0.000149488	0	
7.88501e-005	-0.000149218	0	
1.00189e-005	-0.000156149	0	
1.69184e-005	-0.000156448	0	
2.37566e-005	-0.00015668	0	
3.05489e-005	-0.000156847	0	
3.73108e-005	-0.000156951	0	
4.40575e-005	-0.000156991	0	
5.08044e-005	-0.000156967	0	
5.75667e-005	-0.000156881	0	
6.43596e-005	-0.00015673	0	
7.11984e-005	-0.000156514	0	
7.80984e-005	-0.000156232	0	
1.08087e-005	-0.000163005	0	
1.75481e-005	-0.000163315	0	
2.42281e-005	-0.000163557	0	
3.08637e-005	-0.000163731	0	
3.74698e-005	-0.000163838	0	
4.40612e-005	-0.00016388	0	
5.06527e-005	-0.000163855	0	
5.72591e-005	-0.000163764	0	
6.38951e-005	-0.000163607	0	
7.05756e-005	-0.000163382	0	
7.73153e-005	-0.000163088	0	
1.1629e-005	-0.000169696	0	
1.82022e-005	-0.000170018	0	
2.47179e-005	-0.000170269	0	
3.11907e-005	-0.000170449	0	
3.76349e-005	-0.00017056	0	
4.40648e-005	-0.000170603	0	
5.04949e-005	-0.000170577	0	
5.69393e-005	-0.000170483	0	
6.34124e-005	-0.000170319	0	
6.99285e-005	-0.000170085	0	
7.65019e-005	-0.000169779	0	
1.24789e-005	-0.000176217	0	
1.88799e-005	-0.00017655	0	
2.52255e-005	-0.00017681	0	
3.15295e-005	-0.000176996	0	
3.78059e-005	-0.000177111	0	
4.40685e-005	-0.000177155	0	
5.03311e-005	-0.000177128	0	
5.66077e-005	-0.00017703	0	
6.29119e-005	-0.00017686	0	
6.92577e-005	-0.000176617	0	
7.5659e-005	-0.000176301	0	
1.33573e-005	-0.000182562	0	
1.95805e-005	-0.000182906	0	
2.57501e-005	-0.000183174	0	
3.18797e-005	-0.000183366	0	
3.79826e-005	-0.000183485	0	
4.40721e-005	-0.00018353	0	
5.01617e-005	-0.000183502	0	
5.62647e-005	-0.0001834	0	
6.23944e-005	-0.000183224	0	
6.85643e-005	-0.000182973	0	
7.47876e-005	-0.000182646	0	
1.42633e-005	-0.000188725	0	
2.0303e-005	-0.000189079	0	
2.62913e-005	-0.000189355	0	
3.22409e-005	-0.000189554	0	
3.81647e-005	-0.000189676	0	
4.40757e-005	-0.000189722	0	
4.99867e-005	-0.000189692	0	
5.59107e-005	-0.000189587	0	
6.18604e-005	-0.000189405	0	
6.78488e-005	-0.000189146	0	
7.38887e-005	-0.000188809	0	
1.51958e-005	-0.000194701	0	
2.10468e-005	-0.000195065	0	
2.68483e-005	-0.000195349	0	
3.26126e-005	-0.000195553	0	
3.83522e-005	-0.000195678	0	
4.40793e-005	-0.000195726	0	
4.98065e-005	-0.000195695	0	
5.55461e-005	-0.000195586	0	
6.13105e-005	-0.000195399	0	
6.71122e-005	-0.000195132	0	
7.29634e-005	-0.000194785	0	
1.61538e-005	-0.000200484	0	
2.18111e-005	-0.000200858	0	
2.74207e-005	-0.000201149	0	
3.29946e-005	-0.000201359	0	
3.85447e-005	-0.000201487	0	
4.40829e-005	-0.000201536	0	
4.96212e-005	-0.000201504	0	
5.51713e-005	-0.000201392	0	
6.07454e-005	-0.0002012	0	
6.63551e-005	-0.000200926	0	
7.20126e-005	-0.000200568	0	
1.71363e-005	-0.00020607	0	
2.25949e-005	-0.000206454	0	
2.80078e-005	-0.000206752	0	
3.33864e-005	-0.000206966	0	
3.87422e-005	-0.000207098	0	
4.40865e-005	-0.000207147	0	
4.94309e-005	-0.000207115	0	
5.47868e-005	-0.000207	0	
6.01655e-005	-0.000206802	0	
6.55785e-005	-0.000206521	0	
7.10372e-005	-0.000206154	0	
1.81424e-005	-0.000211454	0	
2.33975e-005	-0.000211846	0	
2.86089e-005	-0.000212151	0	
3.37875e-005	-0.000212371	0	
3.89443e-005	-0.000212505	0	
4.40902e-005	-0.000212556	0	
4.9236e-005	-0.000212522	0	
5.43928e-005	-0.000212405	0	
5.95715e-005	-0.000212202	0	
6.47831e-005	-0.000211914	0	
7.00384e-005	-0.000211538	0	
1.9171e-005	-0.000216631	0	
2.42182e-005	-0.000217032	0	
2.92236e-005	-0.000217343	0	
3.41977e-005	-0.000217567	0	
3.9151e-005	-0.000217705	0	
4.40938e-005	-0.000217756	0	
4.90366e-005	-0.000217722	0	
5.39899e-005	-0.000217601	0	
5.89641e-005	-0.000217394	0	
6.39697e-005	-0.000217099	0	
6.9017e-005	-0.000216715	0	
2.02211e-005	-0.000221596	0	
2.5056e-005	-0.000222005	0	
2.98512e-005	-0.000222323	0	
3.46165e-005	-0.000222552	0	
3.93619e-005	-0.000222692	0	
4.40974e-005	-0.000222745	0	
4.88329e-005	-0.000222709	0	
5.35784e-005	-0.000222586	0	
5.83438e-005	-0.000222374	0	
6.31391e-005	-0.000222073	0	
6.79742e-005	-0.000221681	0	
2.12916e-005	-0.000226347	0	
2.59103e-005	-0.000226763	0	
3.04911e-005	-0.000227087	0	
3.50435e-005	-0.00022732	0	
3.9577e-005	-0.000227463	0	
4.4101e-005	-0.000227516	0	
4.86251e-005	-0.00022748	0	
5.31587e-005	-0.000227354	0	
5.77112e-005	-0.000227138	0	
6.22921e-005	-0.000226831	0	
6.69109e-005	-0.000226432	0	
2.23817e-005	-0.000230877	0	
2.67801e-005	-0.000231301	0	
3.11426e-005	-0.000231631	0	
3.54782e-005	-0.000231868	0	
3.97959e-005	-0.000232013	0	
4.41047e-005	-0.000232067	0	
4.84135e-005	-0.00023203	0	
5.27312e-005	-0.000231902	0	
5.70669e-005	-0.000231682	0	
6.14295e-005	-0.000231369	0	
6.58281e-005	-0.000230962	0	
2.34902e-005	-0.000235185	0	
2.76647e-005	-0.000235615	0	
3.18052e-005	-0.000235951	0	
3.59204e-005	-0.000236191	0	
4.00186e-005	-0.000236339	0	
4.41083e-005	-0.000236394	0	
4.81981e-005	-0.000236356	0	
5.22964e-005	-0.000236226	0	
5.64116e-005	-0.000236002	0	
6.05522e-005	-0.000235684	0	
6.47268e-005	-0.00023527	0	
2.46162e-005	-0.000239265	0	
2.85632e-005	-0.000239702	0	
3.24783e-005	-0.000240043	0	
3.63695e-005	-0.000240287	0	
4.02447e-005	-0.000240437	0	
4.4112e-005	-0.000240492	0	
4.79793e-005	-0.000240454	0	
5.18545e-005	-0.000240321	0	
5.57458e-005	-0.000240094	0	
5.9661e-005	-0.000239771	0	
6.36081e-005	-0.000239351	0	
2.57586e-005	-0.000243116	0	
2.94749e-005	-0.000243559	0	
3.31613e-005	-0.000243904	0	
3.68252e-005	-0.000244152	0	
4.04742e-005	-0.000244304	0	
4.41157e-005	-0.00024436	0	
4.77572e-005	-0.000244321	0	
5.14062e-005	-0.000244186	0	
5.50701e-005	-0.000243955	0	
5.87566e-005	-0.000243627	0	
6.2473e-005	-0.000243201	0	
2.69165e-005	-0.000246732	0	
3.0399e-005	-0.000247181	0	
3.38535e-005	-0.000247531	0	
3.72871e-005	-0.000247782	0	
4.07067e-005	-0.000247936	0	
4.41193e-005	-0.000247993	0	
4.7532e-005	-0.000247953	0	
5.09516e-005	-0.000247816	0	
5.43853e-005	-0.000247582	0	
5.78399e-005	-0.00024725	0	
6.13225e-005	-0.000246818	0	
2.80887e-005	-0.000250113	0	
3.13345e-005	-0.000250567	0	
3.45544e-005	-0.000250921	0	
3.77547e-005	-0.000251175	0	
4.09421e-005	-0.00025133	0	
4.4123e-005	-0.000251388	0	
4.73039e-005	-0.000251348	0	
5.04913e-005	-0.000251209	0	
5.36918e-005	-0.000250972	0	
5.69117e-005	-0.000250636	0	
6.01576e-005	-0.000250198	0	
2.92743e-005	-0.000253254	0	
3.22807e-005	-0.000253713	0	
3.52632e-005	-0.000254071	0	
3.82277e-005	-0.000254328	0	
4.11802e-005	-0.000254485	0	
4.41267e-005	-0.000254543	0	
4.70732e-005	-0.000254502	0	
5.00257e-005	-0.000254362	0	
5.29903e-005	-0.000254122	0	
5.59728e-005	-0.000253782	0	
5.89793e-005	-0.00025334	0	
3.04723e-005	-0.000256153	0	
3.32369e-005	-0.000256617	0	
3.59795e-005	-0.000256978	0	
3.87056e-005	-0.000257238	0	
4.14207e-005	-0.000257396	0	
4.41304e-005	-0.000257455	0	
4.684e-005	-0.000257414	0	
4.95552e-005	-0.000257272	0	
5.22813e-005	-0.00025703	0	
5.5024e-005	-0.000256686	0	
5.77887e-005	-0.000256239	0	
3.16815e-005	-0.000258808	0	
3.4202e-005	-0.000259277	0	
3.67025e-005	-0.000259641	0	
3.9188e-005	-0.000259903	0	
4.16635e-005	-0.000260063	0	
4.41341e-005	-0.000260122	0	
4.66046e-005	-0.00026008	0	
4.90801e-005	-0.000259937	0	
5.15657e-005	-0.000259692	0	
5.40662e-005	-0.000259345	0	
5.65868e-005	-0.000258894	0	
3.29011e-005	-0.000261217	0	
3.51754e-005	-0.000261689	0	
3.74318e-005	-0.000262056	0	
3.96746e-005	-0.00026232	0	
4.19084e-005	-0.000262482	0	
4.41377e-005	-0.000262541	0	
4.63671e-005	-0.000262499	0	
4.86009e-005	-0.000262355	0	
5.08438e-005	-0.000262108	0	
5.31002e-005	-0.000261758	0	
5.53746e-005	-0.000261303	0	
3.413e-005	-0.000263378	0	
3.61563e-005	-0.000263853	0	
3.81666e-005	-0.000264223	0	
4.01649e-005	-0.000264489	0	
4.21551e-005	-0.000264651	0	
4.41414e-005	-0.000264711	0	
4.61277e-005	-0.000264668	0	
4.81181e-005	-0.000264523	0	
5.01164e-005	-0.000264275	0	
5.21267e-005	-0.000263922	0	
5.41531e-005	-0.000263464	0	
3.53671e-005	-0.000265288	0	
3.71437e-005	-0.000265767	0	
3.89063e-005	-0.000266139	0	
4.06584e-005	-0.000266406	0	
4.24035e-005	-0.00026657	0	
4.41451e-005	-0.00026663	0	
4.58868e-005	-0.000266587	0	
4.76319e-005	-0.000266441	0	
4.9384e-005	-0.000266191	0	
5.11467e-005	-0.000265836	0	
5.29234e-005	-0.000265375	0	
3.66114e-005	-0.000266947	0	
3.81369e-005	-0.000267428	0	
3.96504e-005	-0.000267802	0	
4.11549e-005	-0.000268071	0	
4.26534e-005	-0.000268235	0	
4.41488e-005	-0.000268296	0	
4.56443e-005	-0.000268253	0	
4.71428e-005	-0.000268106	0	
4.86473e-005	-0.000267854	0	
5.01609e-005	-0.000267497	0	
5.16864e-005	-0.000267033	0	
3.78619e-005	-0.000268353	0	
3.9135e-005	-0.000268836	0	
4.03982e-005	-0.000269212	0	
4.16538e-005	-0.000269482	0	
4.29044e-005	-0.000269647	0	
4.41525e-005	-0.000269708	0	
4.54007e-005	-0.000269664	0	
4.66513e-005	-0.000269517	0	
4.7907e-005	-0.000269264	0	
4.91701e-005	-0.000268905	0	
5.04433e-005	-0.000268439	0	
3.91175e-005	-0.000269505	0	
4.01373e-005	-0.00026999	0	
4.1149e-005	-0.000270367	0	
4.21548e-005	-0.000270638	0	
4.31565e-005	-0.000270804	0	
4.41562e-005	-0.000270865	0	
4.5156e-005	-0.000270821	0	
4.61577e-005	-0.000270673	0	
4.71635e-005	-0.000270419	0	
4.81753e-005	-0.000270059	0	
4.91951e-005	-0.000269591	0	
4.03773e-005	-0.000270402	0	
4.11428e-005	-0.000270888	0	
4.19024e-005	-0.000271267	0	
4.26574e-005	-0.000271538	0	
4.34094e-005	-0.000271704	0	
4.416e-005	-0.000271765	0	
4.49105e-005	-0.000271722	0	
4.56625e-005	-0.000271573	0	
4.64176e-005	-0.000271318	0	
4.71771e-005	-0.000270957	0	
4.79427e-005	-0.000270488	0	
4.16402e-005	-0.000271043	0	
4.21509e-005	-0.00027153	0	
4.26576e-005	-0.000271909	0	
4.31613e-005	-0.000272182	0	
4.3663e-005	-0.000272348	0	
4.41637e-005	-0.000272409	0	
4.46644e-005	-0.000272365	0	
4.51661e-005	-0.000272216	0	
4.56698e-005	-0.000271961	0	
4.61765e-005	-0.000271599	0	
4.66872e-005	-0.000271129	0	
4.29051e-005	-0.000271428	0	
4.31606e-005	-0.000271916	0	
4.3414e-005	-0.000272295	0	
4.3666e-005	-0.000272568	0	
4.39169e-005	-0.000272735	0	
4.41674e-005	-0.000272796	0	
4.44178e-005	-0.000272752	0	
4.46688e-005	-0.000272603	0	
4.49207e-005	-0.000272347	0	
4.51742e-005	-0.000271985	0	
4.54296e-005	-0.000271514	0	
4.41711e-005	-0.000271556	0	
4.41711e-005	-0.000272044	0	
4.41711e-005	-0.000272424	0	
4.41711e-005	-0.000272697	0	
4.41711e-005	-0.000272864	0	
4.41711e-005	-0.000272925	0	
4.41711e-005	-0.000272881	0	
4.41711e-005	-0.000272731	0	
4.41711e-005	-0.000272476	0	
4.41711e-005	-0.000272113	0	
4.41711e-005	-0.000271643	0	
4.5437e-005	-0.000271428	0	
4.51816e-005	-0.000271916	0	
4.49281e-005	-0.000272295	0	
4.46762e-005	-0.000272568	0	
4.44252e-005	-0.000272735	0	
4.41748e-005	-0.000272796	0	
4.39243e-005	-0.000272752	0	
4.36734e-005	-0.000272603	0	
4.34214e-005	-0.000272347	0	
4.3168e-005	-0.000271985	0	
4.29125e-005	-0.000271514	0	
4.6702e-005	-0.000271043	0	
4.61913e-005	-0.00027153	0	
4.56846e-005	-0.000271909	0	
4.51809e-005	-0.000272182	0	
4.46792e-005	-0.000272348	0	
4.41785e-005	-0.000272409	0	
4.36778e-005	-0.000272365	0	
4.31761e-005	-0.000272216	0	
4.26724e-005	-0.000271961	0	
4.21657e-005	-0.000271599	0	
4.1655e-005	-0.000271129	0	
4.79649e-005	-0.000270402	0	
4.71993e-005	-0.000270888	0	
4.64398e-005	-0.000271267	0	
4.56847e-005	-0.000271538	0	
4.49327e-005	-0.000271704	0	
4.41822e-005	-0.000271765	0	
4.34317e-005	-0.000271722	0	
4.26796e-005	-0.000271573	0	
4.19246e-005	-0.000271318	0	
4.1165e-005	-0.000270957	0	
4.03995e-005	-0.000270488	0	
4.92246e-005	-0.000269505	0	
4.82049e-005	-0.00026999	0	
4.71931e-005	-0.000270367	0	
4.61874e-005	-0.000270638	0	
4.51856e-005	-0.000270804	0	
4.41859e-005	-0.000270865	0	
4.31862e-005	-0.000270821	0	
4.21844e-005	-0.000270673	0	
4.11787e-005	-0.000270419	0	
4.01669e-005	-0.000270059	0	
3.91471e-005	-0.000269591	0	
5.04803e-005	-0.000268353	0	
4.92071e-005	-0.000268836	0	
4.7944e-005	-0.000269212	0	
4.66884e-005	-0.000269482	0	
4.54377e-005	-0.000269647	0	
4.41896e-005	-0.000269708	0	
4.29415e-005	-0.000269664	0	
4.16908e-005	-0.000269517	0	
4.04352e-005	-0.000269264	0	
3.9172e-005	-0.000268905	0	
3.78988e-005	-0.000268439	0	
5.17308e-005	-0.000266947	0	
5.02053e-005	-0.000267428	0	
4.86918e-005	-0.000267802	0	
4.71873e-005	-0.000268071	0	
4.56888e-005	-0.000268235	0	
4.41933e-005	-0.000268296	0	
4.26978e-005	-0.000268253	0	
4.11993e-005	-0.000268106	0	
3.96948e-005	-0.000267854	0	
3.81813e-005	-0.000267497	0	
3.66557e-005	-0.000267033	0	
5.29751e-005	-0.000265288	0	
5.11985e-005	-0.000265767	0	
4.94358e-005	-0.000266139	0	
4.76837e-005	-0.000266406	0	
4.59386e-005	-0.00026657	0	
4.4197e-005	-0.00026663	0	
4.24554e-005	-0.000266587	0	
4.07103e-005	-0.000266441	0	
3.89581e-005	-0.000266191	0	
3.71955e-005	-0.000265836	0	
3.54188e-005	-0.000265375	0	
5.42122e-005	-0.000263378	0	
5.21859e-005	-0.000263853	0	
5.01756e-005	-0.000264223	0	
4.81773e-005	-0.000264489	0	
4.6187e-005	-0.000264651	0	
4.42007e-005	-0.000264711	0	
4.22144e-005	-0.000264668	0	
4.02241e-005	-0.000264523	0	
3.82258e-005	-0.000264275	0	
3.62154e-005	-0.000263922	0	
3.41891e-005	-0.000263464	0	
5.5441e-005	-0.000261217	0	
5.31667e-005	-0.000261689	0	
5.09104e-005	-0.000262056	0	
4.86676e-005	-0.00026232	0	
4.64337e-005	-0.000262482	0	
4.42044e-005	-0.000262541	0	
4.19751e-005	-0.000262499	0	
3.97412e-005	-0.000262355	0	
3.74984e-005	-0.000262108	0	
3.5242e-005	-0.000261758	0	
3.29676e-005	-0.000261303	0	
5.66606e-005	-0.000258808	0	
5.41401e-005	-0.000259277	0	
5.16396e-005	-0.000259641	0	
4.91541e-005	-0.000259903	0	
4.66786e-005	-0.000260063	0	
4.42081e-005	-0.000260122	0	
4.17376e-005	-0.00026008	0	
3.9262e-005	-0.000259937	0	
3.67765e-005	-0.000259692	0	
3.42759e-005	-0.000259345	0	
3.17554e-005	-0.000258894	0	
5.78699e-005	-0.000256153	0	
5.51053e-005	-0.000256617	0	
5.23627e-005	-0.000256978	0	
4.96366e-005	-0.000257238	0	
4.69214e-005	-0.000257396	0	
4.42118e-005	-0.000257455	0	
4.15021e-005	-0.000257414	0	
3.8787e-005	-0.000257272	0	
3.60608e-005	-0.00025703	0	
3.33181e-005	-0.000256686	0	
3.05534e-005	-0.000256239	0	
5.90679e-005	-0.000253254	0	
5.60614e-005	-0.000253713	0	
5.30789e-005	-0.000254071	0	
5.01145e-005	-0.000254328	0	
4.7162e-005	-0.000254485	0	
4.42155e-005	-0.000254543	0	