# vtk DataFile Version 4.1
vtk output
ASCII
DATASET UNSTRUCTURED_GRID

POINTS	1111	float
0	0	0	
0	1	0	
0	2	0	
0	3	0	
0	4	0	
0	5	0	
0	6	0	
0	7	0	
0	8	0	
0	9	0	
0	10	0	
1	0	0	
1	1	0	
1	2	0	
1	3	0	
1	4	0	
1	5	0	
1	6	0	
1	7	0	
1	8	0	
1	9	0	
1	10	0	
2	0	0	
2	1	0	
2	2	0	
2	3	0	
2	4	0	
2	5	0	
2	6	0	
2	7	0	
2	8	0	
2	9	0	
2	10	0	
3	0	0	
3	1	0	
3	2	0	
3	3	0	
3	4	0	
3	5	0	
3	6	0	
3	7	0	
3	8	0	
3	9	0	
3	10	0	
4	0	0	
4	1	0	
4	2	0	
4	3	0	
4	4	0	
4	5	0	
4	6	0	
4	7	0	
4	8	0	
4	9	0	
4	10	0	
5	0	0	
5	1	0	
5	2	0	
5	3	0	
5	4	0	
5	5	0	
5	6	0	
5	7	0	
5	8	0	
5	9	0	
5	10	0	
6	0	0	
6	1	0	
6	2	0	
6	3	0	
6	4	0	
6	5	0	
6	6	0	
6	7	0	
6	8	0	
6	9	0	
6	10	0	
7	0	0	
7	1	0	
7	2	0	
7	3	0	
7	4	0	
7	5	0	
7	6	0	
7	7	0	
7	8	0	
7	9	0	
7	10	0	
8	0	0	
8	1	0	
8	2	0	
8	3	0	
8	4	0	
8	5	0	
8	6	0	
8	7	0	
8	8	0	
8	9	0	
8	10	0	
9	0	0	
9	1	0	
9	2	0	
9	3	0	
9	4	0	
9	5	0	
9	6	0	
9	7	0	
9	8	0	
9	9	0	
9	10	0	
10	0	0	
10	1	0	
10	2	0	
10	3	0	
10	4	0	
10	5	0	
10	6	0	
10	7	0	
10	8	0	
10	9	0	
10	10	0	
11	0	0	
11	1	0	
11	2	0	
11	3	0	
11	4	0	
11	5	0	
11	6	0	
11	7	0	
11	8	0	
11	9	0	
11	10	0	
12	0	0	
12	1	0	
12	2	0	
12	3	0	
12	4	0	
12	5	0	
12	6	0	
12	7	0	
12	8	0	
12	9	0	
12	10	0	
13	0	0	
13	1	0	
13	2	0	
13	3	0	
13	4	0	
13	5	0	
13	6	0	
13	7	0	
13	8	0	
13	9	0	
13	10	0	
14	0	0	
14	1	0	
14	2	0	
14	3	0	
14	4	0	
14	5	0	
14	6	0	
14	7	0	
14	8	0	
14	9	0	
14	10	0	
15	0	0	
15	1	0	
15	2	0	
15	3	0	
15	4	0	
15	5	0	
15	6	0	
15	7	0	
15	8	0	
15	9	0	
15	10	0	
16	0	0	
16	1	0	
16	2	0	
16	3	0	
16	4	0	
16	5	0	
16	6	0	
16	7	0	
16	8	0	
16	9	0	
16	10	0	
17	0	0	
17	1	0	
17	2	0	
17	3	0	
17	4	0	
17	5	0	
17	6	0	
17	7	0	
17	8	0	
17	9	0	
17	10	0	
18	0	0	
18	1	0	
18	2	0	
18	3	0	
18	4	0	
18	5	0	
18	6	0	
18	7	0	
18	8	0	
18	9	0	
18	10	0	
19	0	0	
19	1	0	
19	2	0	
19	3	0	
19	4	0	
19	5	0	
19	6	0	
19	7	0	
19	8	0	
19	9	0	
19	10	0	
20	0	0	
20	1	0	
20	2	0	
20	3	0	
20	4	0	
20	5	0	
20	6	0	
20	7	0	
20	8	0	
20	9	0	
20	10	0	
21	0	0	
21	1	0	
21	2	0	
21	3	0	
21	4	0	
21	5	0	
21	6	0	
21	7	0	
21	8	0	
21	9	0	
21	10	0	
22	0	0	
22	1	0	
22	2	0	
22	3	0	
22	4	0	
22	5	0	
22	6	0	
22	7	0	
22	8	0	
22	9	0	
22	10	0	
23	0	0	
23	1	0	
23	2	0	
23	3	0	
23	4	0	
23	5	0	
23	6	0	
23	7	0	
23	8	0	
23	9	0	
23	10	0	
24	0	0	
24	1	0	
24	2	0	
24	3	0	
24	4	0	
24	5	0	
24	6	0	
24	7	0	
24	8	0	
24	9	0	
24	10	0	
25	0	0	
25	1	0	
25	2	0	
25	3	0	
25	4	0	
25	5	0	
25	6	0	
25	7	0	
25	8	0	
25	9	0	
25	10	0	
26	0	0	
26	1	0	
26	2	0	
26	3	0	
26	4	0	
26	5	0	
26	6	0	
26	7	0	
26	8	0	
26	9	0	
26	10	0	
27	0	0	
27	1	0	
27	2	0	
27	3	0	
27	4	0	
27	5	0	
27	6	0	
27	7	0	
27	8	0	
27	9	0	
27	10	0	
28	0	0	
28	1	0	
28	2	0	
28	3	0	
28	4	0	
28	5	0	
28	6	0	
28	7	0	
28	8	0	
28	9	0	
28	10	0	
29	0	0	
29	1	0	
29	2	0	
29	3	0	
29	4	0	
29	5	0	
29	6	0	
29	7	0	
29	8	0	
29	9	0	
29	10	0	
30	0	0	
30	1	0	
30	2	0	
30	3	0	
30	4	0	
30	5	0	
30	6	0	
30	7	0	
30	8	0	
30	9	0	
30	10	0	
31	0	0	
31	1	0	
31	2	0	
31	3	0	
31	4	0	
31	5	0	
31	6	0	
31	7	0	
31	8	0	
31	9	0	
31	10	0	
32	0	0	
32	1	0	
32	2	0	
32	3	0	
32	4	0	
32	5	0	
32	6	0	
32	7	0	
32	8	0	
32	9	0	
32	10	0	
33	0	0	
33	1	0	
33	2	0	
33	3	0	
33	4	0	
33	5	0	
33	6	0	
33	7	0	
33	8	0	
33	9	0	
33	10	0	
34	0	0	
34	1	0	
34	2	0	
34	3	0	
34	4	0	
34	5	0	
34	6	0	
34	7	0	
34	8	0	
34	9	0	
34	10	0	
35	0	0	
35	1	0	
35	2	0	
35	3	0	
35	4	0	
35	5	0	
35	6	0	
35	7	0	
35	8	0	
35	9	0	
35	10	0	
36	0	0	
36	1	0	
36	2	0	
36	3	0	
36	4	0	
36	5	0	
36	6	0	
36	7	0	
36	8	0	
36	9	0	
36	10	0	
37	0	0	
37	1	0	
37	2	0	
37	3	0	
37	4	0	
37	5	0	
37	6	0	
37	7	0	
37	8	0	
37	9	0	
37	10	0	
38	0	0	
38	1	0	
38	2	0	
38	3	0	
38	4	0	
38	5	0	
38	6	0	
38	7	0	
38	8	0	
38	9	0	
38	10	0	
39	0	0	
39	1	0	
39	2	0	
39	3	0	
39	4	0	
39	5	0	
39	6	0	
39	7	0	
39	8	0	
39	9	0	
39	10	0	
40	0	0	
40	1	0	
40	2	0	
40	3	0	
40	4	0	
40	5	0	
40	6	0	
40	7	0	
40	8	0	
40	9	0	
40	10	0	
41	0	0	
41	1	0	
41	2	0	
41	3	0	
41	4	0	
41	5	0	
41	6	0	
41	7	0	
41	8	0	
41	9	0	
41	10	0	
42	0	0	
42	1	0	
42	2	0	
42	3	0	
42	4	0	
42	5	0	
42	6	0	
42	7	0	
42	8	0	
42	9	0	
42	10	0	
43	0	0	
43	1	0	
43	2	0	
43	3	0	
43	4	0	
43	5	0	
43	6	0	
43	7	0	
43	8	0	
43	9	0	
43	10	0	
44	0	0	
44	1	0	
44	2	0	
44	3	0	
44	4	0	
44	5	0	
44	6	0	
44	7	0	
44	8	0	
44	9	0	
44	10	0	
45	0	0	
45	1	0	
45	2	0	
45	3	0	
45	4	0	
45	5	0	
45	6	0	
45	7	0	
45	8	0	
45	9	0	
45	10	0	
46	0	0	
46	1	0	
46	2	0	
46	3	0	
46	4	0	
46	5	0	
46	6	0	
46	7	0	
46	8	0	
46	9	0	
46	10	0	
47	0	0	
47	1	0	
47	2	0	
47	3	0	
47	4	0	
47	5	0	
47	6	0	
47	7	0	
47	8	0	
47	9	0	
47	10	0	
48	0	0	
48	1	0	
48	2	0	
48	3	0	
48	4	0	
48	5	0	
48	6	0	
48	7	0	
48	8	0	
48	9	0	
48	10	0	
49	0	0	
49	1	0	
49	2	0	
49	3	0	
49	4	0	
49	5	0	
49	6	0	
49	7	0	
49	8	0	
49	9	0	
49	10	0	
50	0	0	
50	1	0	
50	2	0	
50	3	0	
50	4	0	
50	5	0	
50	6	0	
50	7	0	
50	8	0	
50	9	0	
50	10	0	
51	0	0	
51	1	0	
51	2	0	
51	3	0	
51	4	0	
51	5	0	
51	6	0	
51	7	0	
51	8	0	
51	9	0	
51	10	0	
52	0	0	
52	1	0	
52	2	0	
52	3	0	
52	4	0	
52	5	0	
52	6	0	
52	7	0	
52	8	0	
52	9	0	
52	10	0	
53	0	0	
53	1	0	
53	2	0	
53	3	0	
53	4	0	
53	5	0	
53	6	0	
53	7	0	
53	8	0	
53	9	0	
53	10	0	
54	0	0	
54	1	0	
54	2	0	
54	3	0	
54	4	0	
54	5	0	
54	6	0	
54	7	0	
54	8	0	
54	9	0	
54	10	0	
55	0	0	
55	1	0	
55	2	0	
55	3	0	
55	4	0	
55	5	0	
55	6	0	
55	7	0	
55	8	0	
55	9	0	
55	10	0	
56	0	0	
56	1	0	
56	2	0	
56	3	0	
56	4	0	
56	5	0	
56	6	0	
56	7	0	
56	8	0	
56	9	0	
56	10	0	
57	0	0	
57	1	0	
57	2	0	
57	3	0	
57	4	0	
57	5	0	
57	6	0	
57	7	0	
57	8	0	
57	9	0	
57	10	0	
58	0	0	
58	1	0	
58	2	0	
58	3	0	
58	4	0	
58	5	0	
58	6	0	
58	7	0	
58	8	0	
58	9	0	
58	10	0	
59	0	0	
59	1	0	
59	2	0	
59	3	0	
59	4	0	
59	5	0	
59	6	0	
59	7	0	
59	8	0	
59	9	0	
59	10	0	
60	0	0	
60	1	0	
60	2	0	
60	3	0	
60	4	0	
60	5	0	
60	6	0	
60	7	0	
60	8	0	
60	9	0	
60	10	0	
61	0	0	
61	1	0	
61	2	0	
61	3	0	
61	4	0	
61	5	0	
61	6	0	
61	7	0	
61	8	0	
61	9	0	
61	10	0	
62	0	0	
62	1	0	
62	2	0	
62	3	0	
62	4	0	
62	5	0	
62	6	0	
62	7	0	
62	8	0	
62	9	0	
62	10	0	
63	0	0	
63	1	0	
63	2	0	
63	3	0	
63	4	0	
63	5	0	
63	6	0	
63	7	0	
63	8	0	
63	9	0	
63	10	0	
64	0	0	
64	1	0	
64	2	0	
64	3	0	
64	4	0	
64	5	0	
64	6	0	
64	7	0	
64	8	0	
64	9	0	
64	10	0	
65	0	0	
65	1	0	
65	2	0	
65	3	0	
65	4	0	
65	5	0	
65	6	0	
65	7	0	
65	8	0	
65	9	0	
65	10	0	
66	0	0	
66	1	0	
66	2	0	
66	3	0	
66	4	0	
66	5	0	
66	6	0	
66	7	0	
66	8	0	
66	9	0	
66	10	0	
67	0	0	
67	1	0	
67	2	0	
67	3	0	
67	4	0	
67	5	0	
67	6	0	
67	7	0	
67	8	0	
67	9	0	
67	10	0	
68	0	0	
68	1	0	
68	2	0	
68	3	0	
68	4	0	
68	5	0	
68	6	0	
68	7	0	
68	8	0	
68	9	0	
68	10	0	
69	0	0	
69	1	0	
69	2	0	
69	3	0	
69	4	0	
69	5	0	
69	6	0	
69	7	0	
69	8	0	
69	9	0	
69	10	0	
70	0	0	
70	1	0	
70	2	0	
70	3	0	
70	4	0	
70	5	0	
70	6	0	
70	7	0	
70	8	0	
70	9	0	
70	10	0	
71	0	0	
71	1	0	
71	2	0	
71	3	0	
71	4	0	
71	5	0	
71	6	0	
71	7	0	
71	8	0	
71	9	0	
71	10	0	
72	0	0	
72	1	0	
72	2	0	
72	3	0	
72	4	0	
72	5	0	
72	6	0	
72	7	0	
72	8	0	
72	9	0	
72	10	0	
73	0	0	
73	1	0	
73	2	0	
73	3	0	
73	4	0	
73	5	0	
73	6	0	
73	7	0	
73	8	0	
73	9	0	
73	10	0	
74	0	0	
74	1	0	
74	2	0	
74	3	0	
74	4	0	
74	5	0	
74	6	0	
74	7	0	
74	8	0	
74	9	0	
74	10	0	
75	0	0	
75	1	0	
75	2	0	
75	3	0	
75	4	0	
75	5	0	
75	6	0	
75	7	0	
75	8	0	
75	9	0	
75	10	0	
76	0	0	
76	1	0	
76	2	0	
76	3	0	
76	4	0	
76	5	0	
76	6	0	
76	7	0	
76	8	0	
76	9	0	
76	10	0	
77	0	0	
77	1	0	
77	2	0	
77	3	0	
77	4	0	
77	5	0	
77	6	0	
77	7	0	
77	8	0	
77	9	0	
77	10	0	
78	0	0	
78	1	0	
78	2	0	
78	3	0	
78	4	0	
78	5	0	
78	6	0	
78	7	0	
78	8	0	
78	9	0	
78	10	0	
79	0	0	
79	1	0	
79	2	0	
79	3	0	
79	4	0	
79	5	0	
79	6	0	
79	7	0	
79	8	0	
79	9	0	
79	10	0	
80	0	0	
80	1	0	
80	2	0	
80	3	0	
80	4	0	
80	5	0	
80	6	0	
80	7	0	
80	8	0	
80	9	0	
80	10	0	
81	0	0	
81	1	0	
81	2	0	
81	3	0	
81	4	0	
81	5	0	
81	6	0	
81	7	0	
81	8	0	
81	9	0	
81	10	0	
82	0	0	
82	1	0	
82	2	0	
82	3	0	
82	4	0	
82	5	0	
82	6	0	
82	7	0	
82	8	0	
82	9	0	
82	10	0	
83	0	0	
83	1	0	
83	2	0	
83	3	0	
83	4	0	
83	5	0	
83	6	0	
83	7	0	
83	8	0	
83	9	0	
83	10	0	
84	0	0	
84	1	0	
84	2	0	
84	3	0	
84	4	0	
84	5	0	
84	6	0	
84	7	0	
84	8	0	
84	9	0	
84	10	0	
85	0	0	
85	1	0	
85	2	0	
85	3	0	
85	4	0	
85	5	0	
85	6	0	
85	7	0	
85	8	0	
85	9	0	
85	10	0	
86	0	0	
86	1	0	
86	2	0	
86	3	0	
86	4	0	
86	5	0	
86	6	0	
86	7	0	
86	8	0	
86	9	0	
86	10	0	
87	0	0	
87	1	0	
87	2	0	
87	3	0	
87	4	0	
87	5	0	
87	6	0	
87	7	0	
87	8	0	
87	9	0	
87	10	0	
88	0	0	
88	1	0	
88	2	0	
88	3	0	
88	4	0	
88	5	0	
88	6	0	
88	7	0	
88	8	0	
88	9	0	
88	10	0	
89	0	0	
89	1	0	
89	2	0	
89	3	0	
89	4	0	
89	5	0	
89	6	0	
89	7	0	
89	8	0	
89	9	0	
89	10	0	
90	0	0	
90	1	0	
90	2	0	
90	3	0	
90	4	0	
90	5	0	
90	6	0	
90	7	0	
90	8	0	
90	9	0	
90	10	0	
91	0	0	
91	1	0	
91	2	0	
91	3	0	
91	4	0	
91	5	0	
91	6	0	
91	7	0	
91	8	0	
91	9	0	
91	10	0	
92	0	0	
92	1	0	
92	2	0	
92	3	0	
92	4	0	
92	5	0	
92	6	0	
92	7	0	
92	8	0	
92	9	0	
92	10	0	
93	0	0	
93	1	0	
93	2	0	
93	3	0	
93	4	0	
93	5	0	
93	6	0	
93	7	0	
93	8	0	
93	9	0	
93	10	0	
94	0	0	
94	1	0	
94	2	0	
94	3	0	
94	4	0	
94	5	0	
94	6	0	
94	7	0	
94	8	0	
94	9	0	
94	10	0	
95	0	0	
95	1	0	
95	2	0	
95	3	0	
95	4	0	
95	5	0	
95	6	0	
95	7	0	
95	8	0	
95	9	0	
95	10	0	
96	0	0	
96	1	0	
96	2	0	
96	3	0	
96	4	0	
96	5	0	
96	6	0	
96	7	0	
96	8	0	
96	9	0	
96	10	0	
97	0	0	
97	1	0	
97	2	0	
97	3	0	
97	4	0	
97	5	0	
97	6	0	
97	7	0	
97	8	0	
97	9	0	
97	10	0	
98	0	0	
98	1	0	
98	2	0	
98	3	0	
98	4	0	
98	5	0	
98	6	0	
98	7	0	
98	8	0	
98	9	0	
98	10	0	
99	0	0	
99	1	0	
99	2	0	
99	3	0	
99	4	0	
99	5	0	
99	6	0	
99	7	0	
99	8	0	
99	9	0	
99	10	0	
100	0	0	
100	1	0	
100	2	0	
100	3	0	
100	4	0	
100	5	0	
100	6	0	
100	7	0	
100	8	0	
100	9	0	
100	10	0	

CELLS 1000	5000
4	0	11	12	1	
4	1	12	13	2	
4	2	13	14	3	
4	3	14	15	4	
4	4	15	16	5	
4	5	16	17	6	
4	6	17	18	7	
4	7	18	19	8	
4	8	19	20	9	
4	9	20	21	10	
4	11	22	23	12	
4	12	23	24	13	
4	13	24	25	14	
4	14	25	26	15	
4	15	26	27	16	
4	16	27	28	17	
4	17	28	29	18	
4	18	29	30	19	
4	19	30	31	20	
4	20	31	32	21	
4	22	33	34	23	
4	23	34	35	24	
4	24	35	36	25	
4	25	36	37	26	
4	26	37	38	27	
4	27	38	39	28	
4	28	39	40	29	
4	29	40	41	30	
4	30	41	42	31	
4	31	42	43	32	
4	33	44	45	34	
4	34	45	46	35	
4	35	46	47	36	
4	36	47	48	37	
4	37	48	49	38	
4	38	49	50	39	
4	39	50	51	40	
4	40	51	52	41	
4	41	52	53	42	
4	42	53	54	43	
4	44	55	56	45	
4	45	56	57	46	
4	46	57	58	47	
4	47	58	59	48	
4	48	59	60	49	
4	49	60	61	50	
4	50	61	62	51	
4	51	62	63	52	
4	52	63	64	53	
4	53	64	65	54	
4	55	66	67	56	
4	56	67	68	57	
4	57	68	69	58	
4	58	69	70	59	
4	59	70	71	60	
4	60	71	72	61	
4	61	72	73	62	
4	62	73	74	63	
4	63	74	75	64	
4	64	75	76	65	
4	66	77	78	67	
4	67	78	79	68	
4	68	79	80	69	
4	69	80	81	70	
4	70	81	82	71	
4	71	82	83	72	
4	72	83	84	73	
4	73	84	85	74	
[...]
POINT_DATA	1111
VECTORS u float
4.86339e-026	-4.12698e-015	0	
3.71359e-005	-4.94953e-006	0	
7.05526e-005	-7.82015e-006	0	
0.000103076	-9.59815e-006	0	
0.000135209	-1.07776e-005	0	
0.000167156	-1.15633e-005	0	
0.000199035	-1.20565e-005	0	
0.00023093	-1.23255e-005	0	
0.000262905	-1.24331e-005	0	
0.000294992	-1.24492e-005	0	
0.000327163	-1.2445e-005	0	
2.02403e-006	-4.08899e-005	0	
3.78011e-005	-4.09336e-005	0	
7.11264e-005	-4.15969e-005	0	
0.000103522	-4.24587e-005	0	
0.000135538	-4.32049e-005	0	
0.000167383	-4.37769e-005	0	
0.000199174	-4.41792e-005	0	
0.000230998	-4.44342e-005	0	
0.000262921	-4.4571e-005	0	
0.000294982	-4.46227e-005	0	
0.000327167	-4.46318e-005	0	
3.59485e-006	-7.52802e-005	0	
3.77344e-005	-7.56453e-005	0	
7.11622e-005	-7.56454e-005	0	
0.000103655	-7.58305e-005	0	
0.000135684	-7.61287e-005	0	
0.000167498	-7.64251e-005	0	
0.000199242	-7.66636e-005	0	
0.000231016	-7.68243e-005	0	
0.000262895	-7.69057e-005	0	
0.00029493	-7.69195e-005	0	
0.000327151	-7.69013e-005	0	
4.80198e-006	-0.000108755	0	
3.80815e-005	-0.000109045	0	
7.11184e-005	-0.000109116	0	
0.00010362	-0.000109114	0	
0.000135678	-0.000109167	0	
0.000167492	-0.000109256	0	
0.000199211	-0.000109339	0	
0.000230946	-0.000109388	0	
0.000262783	-0.000109389	0	
0.000294794	-0.000109343	0	
0.00032705	-0.000109274	0	
5.77254e-006	-0.000141684	0	
3.85885e-005	-0.000141987	0	
7.1261e-005	-0.000142113	0	
0.000103605	-0.000142127	0	
0.000135619	-0.000142108	0	
0.000167407	-0.00014209	0	
0.000199091	-0.000142068	0	
0.000230781	-0.000142025	0	
0.000262572	-0.00014195	0	
0.00029455	-0.000141841	0	
0.000326811	-0.000141711	0	
6.66904e-006	-0.000174335	0	
3.9182e-005	-0.000174651	0	
7.1552e-005	-0.000174832	0	
0.000103689	-0.000174893	0	
0.000135583	-0.00017488	0	
0.000167293	-0.000174828	0	
0.000198911	-0.000174751	0	
0.000230536	-0.000174648	0	
0.000262263	-0.000174513	0	
0.000294185	-0.000174346	0	
0.000326407	-0.000174149	0	
7.5702e-006	-0.000206776	0	
3.98459e-005	-0.000207118	0	
7.19565e-005	-0.000207344	0	
0.000103873	-0.000207454	0	
0.000135601	-0.000207471	0	
0.000167185	-0.000207423	0	
0.000198698	-0.000207326	0	
0.000230226	-0.000207188	0	
0.00026186	-0.000207009	0	
0.000293694	-0.00020679	0	
0.00032583	-0.000206528	0	
8.52385e-006	-0.000239028	0	
4.05832e-005	-0.000239403	0	
7.24541e-005	-0.00023967	0	
0.000104145	-0.000239825	0	
0.000135678	-0.000239879	0	
0.000167097	-0.000239849	0	
0.000198466	-0.00023975	0	
0.000229862	-0.000239593	0	
0.00026137	-0.000239381	0	
0.000293078	-0.000239115	0	
0.000325082	-0.00023879	0	
9.55888e-006	-0.000271088	0	
4.14009e-005	-0.000271502	0	
7.30352e-005	-0.000271809	0	
0.000104492	-0.000272004	0	
0.000135809	-0.000272092	0	
0.000167031	-0.000272083	0	
0.000198221	-0.000271991	0	
0.00022945	-0.000271822	0	
0.000260795	-0.000271583	0	
0.00029234	-0.000271274	0	
0.000324171	-0.00027089	0	
1.06937e-005	-0.00030294	0	
4.23058e-005	-0.000303397	0	
7.36956e-005	-0.000303744	0	
0.000104907	-0.000303975	0	
0.000135987	-0.000304093	0	
0.000166986	-0.000304106	0	
0.000197966	-0.00030402	0	
0.000228992	-0.000303843	0	
0.00026014	-0.00030358	0	
0.000291486	-0.00030323	0	
0.000323107	-0.00030279	0	
1.194e-005	-0.000334563	0	
4.33033e-005	-0.000335066	0	
7.44337e-005	-0.000335452	0	
0.000105384	-0.000335717	0	
0.000136207	-0.000335863	0	
0.000166957	-0.000335893	0	
0.000197696	-0.000335812	0	
0.000228489	-0.000335627	0	
0.000259405	-0.00033534	0	
0.000290518	-0.00033495	0	
0.000321898	-0.000334456	0	
1.33053e-005	-0.000365933	0	
4.43972e-005	-0.000366483	0	
7.5249e-005	-0.000366908	0	
0.000105918	-0.000367205	0	
0.000136462	-0.000367375	0	
0.000166939	-0.00036742	0	
0.000197409	-0.000367342	0	
0.000227938	-0.000367147	0	
0.000258592	-0.000366835	0	
0.00028944	-0.000366407	0	
0.00032055	-0.000365861	0	
1.47943e-005	-0.000397023	0	
4.55903e-005	-0.000397622	0	
7.61415e-005	-0.000398086	0	
0.000106509	-0.000398414	0	
0.000136751	-0.000398605	0	
0.000166928	-0.000398662	0	
0.000197103	-0.000398585	0	
0.000227339	-0.000398378	0	
0.000257701	-0.000398041	0	
0.000288255	-0.000397575	0	
0.000319066	-0.000396977	0	
1.64097e-005	-0.000427807	0	
4.68844e-005	-0.000428455	0	
7.71114e-005	-0.000428958	0	
0.000107153	-0.000429316	0	
0.000137069	-0.000429527	0	
0.000166923	-0.000429594	0	
0.000196775	-0.000429516	0	
0.00022669	-0.000429295	0	
0.000256732	-0.000428933	0	
0.000286964	-0.000428428	0	
0.00031745	-0.000427779	0	
1.81532e-005	-0.000458258	0	
4.82806e-005	-0.000458956	0	
7.81585e-005	-0.000459498	0	
0.00010785	-0.000459885	0	
0.000137416	-0.000460115	0	
0.00016692	-0.000460189	0	
0.000196424	-0.000460109	0	
0.000225991	-0.000459874	0	
0.000255685	-0.000459485	0	
0.000285568	-0.000458941	0	
0.000315704	-0.000458243	0	
2.00258e-005	-0.00048835	0	
4.97797e-005	-0.000489097	0	
7.92831e-005	-0.000489678	0	
0.000108599	-0.000490093	0	
0.00013779	-0.000490342	0	
0.000166919	-0.000490423	0	
0.000196049	-0.000490339	0	
0.000225241	-0.000490088	0	
0.00025456	-0.000489672	0	
0.000284068	-0.00048909	0	
0.000313828	-0.000488342	0	
2.20277e-005	-0.000518055	0	
5.1382e-005	-0.000518852	0	
8.04852e-005	-0.000519473	0	
0.000109401	-0.000519916	0	
0.000138191	-0.000520181	0	
0.000166919	-0.000520269	0	
0.000195648	-0.00052018	0	
0.00022444	-0.000519914	0	
0.000253358	-0.00051947	0	
0.000282465	-0.00051885	0	
0.000311823	-0.000518052	0	
2.41591e-005	-0.000547348	0	
5.30876e-005	-0.000548195	0	
8.17649e-005	-0.000548854	0	
0.000110254	-0.000549325	0	
0.000138618	-0.000549607	0	
0.00016692	-0.000549702	0	
0.000195222	-0.000549607	0	
0.000223587	-0.000549325	0	
0.000252078	-0.000548854	0	
0.000280758	-0.000548195	0	
0.000309689	-0.000547347	0	
2.64202e-005	-0.000576202	0	
5.48968e-005	-0.000577099	0	
8.3122e-005	-0.000577797	0	
0.000111159	-0.000578295	0	
0.000139071	-0.000578595	0	
0.00016692	-0.000578695	0	
0.00019477	-0.000578595	0	
0.000222682	-0.000578296	0	
0.000250721	-0.000577798	0	
0.000278948	-0.0005771	0	
0.000307426	-0.000576202	0	
2.88108e-005	-0.000604591	0	
5.68094e-005	-0.000605538	0	
8.45568e-005	-0.000606274	0	
0.000112116	-0.000606801	0	
0.000139549	-0.000607117	0	
0.00016692	-0.000607222	0	
0.000194292	-0.000607117	0	
0.000221726	-0.000606802	0	
0.000249286	-0.000606275	0	
0.000277035	-0.000605539	0	
0.000305034	-0.000604591	0	
3.13308e-005	-0.000632488	0	
5.88256e-005	-0.000633485	0	
8.6069e-005	-0.000634261	0	
0.000113124	-0.000634815	0	
0.000140054	-0.000635148	0	
0.000166921	-0.000635259	0	
0.000193788	-0.000635148	0	
0.000220718	-0.000634816	0	
0.000247774	-0.000634262	0	
0.000275018	-0.000633486	0	
0.000302513	-0.000632489	0	
3.39803e-005	-0.000659869	0	
6.09452e-005	-0.000660916	0	
8.76589e-005	-0.000661731	0	
0.000114184	-0.000662312	0	
0.000140584	-0.000662661	0	
0.000166921	-0.000662778	0	
0.000193258	-0.000662662	0	
0.000219658	-0.000662313	0	
0.000246184	-0.000661731	0	
0.000272898	-0.000660917	0	
0.000299863	-0.00065987	0	
3.67592e-005	-0.000686707	0	
6.31683e-005	-0.000687804	0	
8.93263e-005	-0.000688657	0	
0.000115296	-0.000689267	0	
0.00014114	-0.000689633	0	
0.000166921	-0.000689755	0	
0.000192703	-0.000689633	0	
0.000218547	-0.000689267	0	
0.000244517	-0.000688658	0	
0.000270675	-0.000687805	0	
0.000297084	-0.000686708	0	
3.96673e-005	-0.000712977	0	
6.54949e-005	-0.000714124	0	
9.10712e-005	-0.000715015	0	
0.000116459	-0.000715653	0	
0.000141722	-0.000716035	0	
0.000166921	-0.000716162	0	
0.000192121	-0.000716035	0	
0.000217384	-0.000715653	0	
0.000242772	-0.000715016	0	
0.000268348	-0.000714124	0	
0.000294176	-0.000712977	0	
4.27048e-005	-0.000738652	0	
6.79249e-005	-0.000739848	0	
9.28938e-005	-0.000740779	0	
0.000117674	-0.000741444	0	
0.000142329	-0.000741843	0	
0.000166921	-0.000741976	0	
0.000191514	-0.000741843	0	
0.000216169	-0.000741444	0	
0.000240949	-0.000740779	0	
0.000265918	-0.000739849	0	
0.000291138	-0.000738652	0	
4.58716e-005	-0.000763706	0	
7.04583e-005	-0.000764952	0	
9.47938e-005	-0.000765922	0	
0.000118941	-0.000766614	0	
0.000142963	-0.00076703	0	
0.000166922	-0.000767168	0	
0.00019088	-0.00076703	0	
0.000214902	-0.000766615	0	
0.000239049	-0.000765922	0	
0.000263385	-0.000764953	0	
0.000287971	-0.000763706	0	
4.91676e-005	-0.000788114	0	
7.30951e-005	-0.00078941	0	
9.67715e-005	-0.000790418	0	
0.000120259	-0.000791139	0	
0.000143622	-0.000791571	0	
0.000166922	-0.000791715	0	
0.000190221	-0.000791571	0	
0.000213584	-0.000791139	0	
0.000237072	-0.000790419	0	
0.000260748	-0.000789411	0	
0.000284675	-0.000788114	0	
5.25928e-005	-0.00081185	0	
7.58353e-005	-0.000813196	0	
9.88266e-005	-0.000814243	0	
0.00012163	-0.000814991	0	
0.000144307	-0.00081544	0	
0.000166922	-0.000815589	0	
0.000189536	-0.00081544	0	
0.000212214	-0.000814991	0	
0.000235016	-0.000814243	0	
0.000258008	-0.000813196	0	
0.00028125	-0.00081185	0	
5.61473e-005	-0.000834888	0	
7.86789e-005	-0.000836284	0	
0.000100959	-0.00083737	0	
0.000123051	-0.000838145	0	
0.000145018	-0.00083861	0	
0.000166922	-0.000838766	0	
0.000188825	-0.000838611	0	
0.000210792	-0.000838145	0	
0.000232884	-0.00083737	0	
0.000255164	-0.000836284	0	
0.000277695	-0.000834888	0	
5.9831e-005	-0.000857202	0	
8.16259e-005	-0.000858648	0	
0.00010317	-0.000859772	0	
0.000124525	-0.000860575	0	
0.000145755	-0.000861057	0	
0.000166922	-0.000861218	0	
0.000188089	-0.000861058	0	
0.000209318	-0.000860576	0	
0.000230673	-0.000859772	0	
0.000252217	-0.000858648	0	
0.000274011	-0.000857202	0	
6.36439e-005	-0.000878766	0	
8.46762e-005	-0.000880262	0	
0.000105457	-0.000881425	0	
0.00012605	-0.000882256	0	
0.000146518	-0.000882755	0	
0.000166922	-0.000882921	0	
0.000187326	-0.000882755	0	
0.000207793	-0.000882256	0	
0.000228385	-0.000881425	0	
0.000249166	-0.000880262	0	
0.000270198	-0.000878766	0	
6.7586e-005	-0.000899555	0	
8.783e-005	-0.000901101	0	
0.000107823	-0.000902303	0	
0.000127627	-0.000903162	0	
0.000147306	-0.000903677	0	
0.000166922	-0.000903848	0	
0.000186538	-0.000903677	0	
0.000206216	-0.000903161	0	
0.00022602	-0.000902303	0	
0.000246012	-0.000901101	0	
0.000266256	-0.000899555	0	
7.16573e-005	-0.000919543	0	
9.10872e-005	-0.000921139	0	
0.000110266	-0.000922379	0	
0.000129256	-0.000923266	0	
0.00014812	-0.000923797	0	
0.000166922	-0.000923974	0	
0.000185723	-0.000923797	0	
0.000204588	-0.000923265	0	
0.000223577	-0.000922378	0	
0.000242755	-0.000921137	0	
0.000262184	-0.000919542	0	
7.58578e-005	-0.000938704	0	
9.44478e-005	-0.000940349	0	
0.000112786	-0.000941629	0	
0.000130936	-0.000942543	0	
0.000148961	-0.000943091	0	
0.000166922	-0.000943273	0	
0.000184883	-0.00094309	0	
0.000202907	-0.000942541	0	
0.000221057	-0.000941627	0	
0.000239394	-0.000940347	0	
0.000257982	-0.000938701	0	
8.01876e-005	-0.000957012	0	
9.79118e-005	-0.000958707	0	
0.000115384	-0.000960026	0	
0.000132668	-0.000960967	0	
0.000149826	-0.000961531	0	
0.000166921	-0.000961719	0	
0.000184017	-0.000961529	0	
0.000201175	-0.000960963	0	
0.000218459	-0.000960021	0	
0.00023593	-0.000958703	0	
0.000253652	-0.000957007	0	
8.46468e-005	-0.000974442	0	
0.00010148	-0.000976187	0	
0.00011806	-0.000977544	0	
0.000134452	-0.000978513	0	
0.000150717	-0.000979093	0	
0.00016692	-0.000979285	0	
0.000183124	-0.000979089	0	
0.000199391	-0.000978506	0	
0.000215783	-0.000977536	0	
0.000232363	-0.000976179	0	
0.000249192	-0.000974434	0	
8.92358e-005	-0.000990968	0	
0.000105151	-0.000992763	0	
0.000120813	-0.000994159	0	
0.000136286	-0.000995155	0	
0.000151633	-0.000995751	0	
0.000166919	-0.000995947	0	
0.000182205	-0.000995745	0	
0.000197555	-0.000995144	0	
0.00021303	-0.000994145	0	
0.000228692	-0.000992749	0	
0.000244604	-0.000990955	0	
9.3955e-005	-0.00100656	0	
0.000108927	-0.00100841	0	
0.000123644	-0.00100984	0	
0.000138172	-0.00101087	0	
0.000152574	-0.00101148	0	
0.000166915	-0.00101168	0	
0.000181259	-0.00101147	0	
0.000195666	-0.00101085	0	
0.000210199	-0.00100982	0	
0.00022492	-0.00100839	0	
0.000239888	-0.00100654	0	
9.88053e-005	-0.0010212	0	
0.000112807	-0.0010231	0	
0.000126553	-0.00102457	0	
0.000140108	-0.00102562	0	
0.000153539	-0.00102625	0	
0.00016691	-0.00102645	0	
0.000180284	-0.00102624	0	
0.000193725	-0.0010256	0	
0.000207291	-0.00102454	0	
0.000221045	-0.00102307	0	
0.000235044	-0.00102118	0	
0.000103788	-0.00103486	0	
0.000116793	-0.00103681	0	
0.000129539	-0.00103832	0	
0.000142095	-0.0010394	0	
0.000154527	-0.00104004	0	
0.000166901	-0.00104025	0	
0.000179282	-0.00104002	0	
0.00019173	-0.00103936	0	
0.000204306	-0.00103828	0	
0.000217068	-0.00103677	0	
0.000230074	-0.00103482	0	
0.000108905	-0.00104751	0	
0.000120885	-0.00104951	0	
0.000132604	-0.00105106	0	
0.000144132	-0.00105217	0	
0.000155538	-0.00105282	0	
0.000166889	-0.00105303	0	
0.000178249	-0.0010528	0	
0.000189681	-0.00105212	0	
0.000201243	-0.00105101	0	
0.000212991	-0.00104945	0	
0.000224979	-0.00104746	0	
0.000114158	-0.00105913	0	
0.000125084	-0.00106118	0	
0.000135746	-0.00106277	0	
0.000146218	-0.0010639	0	
0.000156571	-0.00106457	0	
0.000166871	-0.00106478	0	
0.000177186	-0.00106454	0	
0.000187577	-0.00106384	0	
0.000198102	-0.0010627	0	
0.000208815	-0.00106111	0	
0.000219764	-0.00105907	0	
0.00011955	-0.00106967	0	
0.000129391	-0.00107178	0	
0.000138967	-0.00107341	0	
0.000148355	-0.00107457	0	
0.000157625	-0.00107526	0	
0.000166849	-0.00107547	0	
0.000176091	-0.00107523	0	
0.000185417	-0.00107451	0	
0.000194884	-0.00107334	0	
0.000204541	-0.00107171	0	
0.000214432	-0.00106963	0	
0.000125083	-0.00107912	0	
0.000133808	-0.00108128	0	
0.000142268	-0.00108295	0	
0.000150542	-0.00108414	0	
0.000158703	-0.00108485	0	
0.000166822	-0.00108508	0	
0.000174965	-0.00108483	0	
0.0001832	-0.0010841	0	
0.000191585	-0.0010829	0	
0.00020017	-0.00108124	0	
0.000208988	-0.00107911	0	
0.000130761	-0.00108744	0	
0.000138333	-0.00108965	0	
0.000145647	-0.00109137	0	
0.000152782	-0.00109259	0	
0.000159809	-0.00109333	0	
0.000166796	-0.00109358	0	
0.000173811	-0.00109334	0	
0.000180925	-0.0010926	0	
0.000188205	-0.00109138	0	
0.000195703	-0.00108968	0	
0.000203439	-0.00108751	0	
0.00013658	-0.00109458	0	
0.000142966	-0.00109685	0	
0.000149106	-0.00109861	0	
0.000155078	-0.00109987	0	
0.000160948	-0.00110065	0	
0.00016678	-0.00110093	0	
0.000172639	-0.00110072	0	
0.000178599	-0.0011	0	
0.000184741	-0.00109877	0	
0.000191135	-0.00109703	0	
0.000197796	-0.00109482	0	
0.000142538	-0.0011005	0	
0.000147701	-0.00110282	0	
0.000152643	-0.00110463	0	
0.000157433	-0.00110594	0	
0.000162131	-0.00110676	0	
0.00016679	-0.00110711	0	
0.000171468	-0.00110696	0	
0.000176237	-0.00110629	0	
0.000181195	-0.00110508	0	
0.000186454	-0.00110332	0	
0.000192065	-0.00110107	0	
0.000148622	-0.00110517	0	
0.000152529	-0.00110754	0	
0.000156252	-0.00110938	0	
0.000159849	-0.00111074	0	
0.000163367	-0.00111162	0	
0.000166847	-0.00111204	0	
0.000170333	-0.00111198	0	
0.000173882	-0.00111143	0	
0.000177593	-0.00111033	0	
0.000181644	-0.00110862	0	
0.000186239	-0.00110635	0	
0.000154811	-0.00110855	0	
0.000157434	-0.00111095	0	
0.000159923	-0.00111282	0	
0.000162322	-0.00111422	0	
0.000164662	-0.00111516	0	
0.000166969	-0.00111566	0	
0.000169269	-0.00111572	0	
0.000171599	-0.00111534	0	
0.000174028	-0.00111447	0	
0.00017674	-0.00111301	0	
0.000180251	-0.00111088	0	
0.000161078	-0.00111058	0	
0.000162395	-0.00111301	0	
0.000163642	-0.00111491	0	
0.000164841	-0.00111633	0	
0.000166008	-0.00111732	0	
0.000167156	-0.00111788	0	
0.000168296	-0.00111805	0	
0.000169441	-0.00111784	0	
0.000170623	-0.00111725	0	
0.000171938	-0.00111626	0	
0.000173967	-0.00111471	0	
0.000167386	-0.00111127	0	
0.000167386	-0.0011137	0	
0.000167386	-0.00111561	0	
0.000167386	-0.00111704	0	
0.000167386	-0.00111804	0	
0.000167386	-0.00111863	0	
0.000167386	-0.00111884	0	
0.000167386	-0.0011187	0	
0.000167386	-0.00111825	0	
0.000167386	-0.00111754	0	
0.000167386	-0.00111645	0	
0.000173693	-0.00111058	0	
0.000172377	-0.00111301	0	
0.00017113	-0.00111491	0	
0.00016993	-0.00111633	0	
0.000168763	-0.00111732	0	
0.000167616	-0.00111788	0	
0.000166476	-0.00111805	0	
0.00016533	-0.00111784	0	
0.000164149	-0.00111725	0	
0.000162833	-0.00111626	0	
0.000160805	-0.00111471	0	
0.00017996	-0.00110855	0	
0.000177338	-0.00111095	0	
0.000174848	-0.00111282	0	
0.000172449	-0.00111422	0	
0.00017011	-0.00111516	0	
0.000167803	-0.00111566	0	
0.000165502	-0.00111572	0	
0.000163172	-0.00111534	0	
0.000160743	-0.00111447	0	
0.000158032	-0.00111301	0	
0.00015452	-0.00111088	0	
0.00018615	-0.00110517	0	
0.000182243	-0.00110754	0	
0.00017852	-0.00110938	0	
0.000174922	-0.00111074	0	
0.000171404	-0.00111162	0	
0.000167924	-0.00111204	0	
0.000164439	-0.00111198	0	
0.00016089	-0.00111143	0	
0.000157178	-0.00111033	0	
0.000153127	-0.00110862	0	
0.000148532	-0.00110635	0	
0.000192234	-0.0011005	0	
0.000187071	-0.00110282	0	
0.000182129	-0.00110463	0	
0.000177338	-0.00110594	0	
0.000172641	-0.00110676	0	
0.000167982	-0.00110711	0	
0.000163304	-0.00110696	0	
0.000158534	-0.00110629	0	
0.000153577	-0.00110508	0	
0.000148317	-0.00110332	0	
0.000142707	-0.00110107	0	
0.000198191	-0.00109458	0	
0.000191806	-0.00109685	0	
0.000185665	-0.00109861	0	
0.000179694	-0.00109987	0	
0.000173824	-0.00110065	0	
0.000167992	-0.00110093	0	
0.000162133	-0.00110072	0	
0.000156173	-0.0011	0	
0.00015003	-0.00109877	0	
0.000143637	-0.00109703	0	
0.000136976	-0.00109482	0	
0.000204011	-0.00108744	0	
0.000196438	-0.00108965	0	
0.000189124	-0.00109137	0	
0.00018199	-0.00109259	0	
0.000174963	-0.00109333	0	
0.000167976	-0.00109358	0	
0.00016096	-0.00109334	0	
0.000153846	-0.0010926	0	
0.000146566	-0.00109138	0	
0.000139069	-0.00108968	0	
0.000131332	-0.00108751	0	
0.000209688	-0.00107912	0	
0.000200964	-0.00108128	0	
0.000192504	-0.00108295	0	
0.00018423	-0.00108414	0	
0.000176068	-0.00108485	0	
0.00016795	-0.00108508	0	
0.000159806	-0.00108483	0	
0.000151572	-0.0010841	0	
0.000143186	-0.0010829	0	
0.000134601	-0.00108124	0	
0.000125784	-0.00107911	0	
0.000215222	-0.00106967	0	
0.000205381	-0.00107178	0	
0.000195804	-0.00107341	0	
0.000186417	-0.00107457	0	
0.000177146	-0.00107526	0	
0.000167923	-0.00107547	0	
0.00015868	-0.00107523	0	
0.000149355	-0.00107451	0	
0.000139888	-0.00107334	0	
0.000130231	-0.00107171	0	
0.00012034	-0.00106963	0	
0.000220614	-0.00105913	0	
0.000209688	-0.00106118	0	
0.000199025	-0.00106277	0	
0.000188553	-0.0010639	0	
0.000178201	-0.00106457	0	
0.0001679	-0.00106478	0	
0.000157586	-0.00106454	0	
0.000147194	-0.00106384	0	
0.000136669	-0.0010627	0	
0.000125957	-0.00106111	0	
0.000115008	-0.00105907	0	
0.000225867	-0.00104751	0	
0.000213887	-0.00104951	0	
0.000202168	-0.00105106	0	
0.00019064	-0.00105217	0	
0.000179234	-0.00105282	0	
0.000167883	-0.00105303	0	
0.000156522	-0.0010528	0	
0.000145091	-0.00105212	0	
0.000133528	-0.00105101	0	
0.00012178	-0.00104945	0	
0.000109792	-0.00104746	0	
0.000230984	-0.00103486	0	
0.000217979	-0.00103681	0	
0.000205232	-0.00103832	0	
0.000192676	-0.0010394	0	
0.000180244	-0.00104004	0	
0.00016787	-0.00104025	0	
0.00015549	-0.00104002	0	
0.000143042	-0.00103936	0	
0.000130466	-0.00103828	0	
0.000117704	-0.00103677	0	
0.000104698	-0.00103482	0	
0.000235966	-0.0010212	0	
0.000221964	-0.0010231	0	
0.000208219	-0.00102457	0	
0.000194663	-0.00102562	0	
0.000181232	-0.00102625	0	
0.000167862	-0.00102645	0	
0.000154487	-0.00102624	0	
0.000141047	-0.0010256	0	
0.00012748	-0.00102454	0	
0.000113727	-0.00102307	0	
9.9728e-005	-0.00102118	0	
0.000240817	-0.00100656	0	
0.000225845	-0.00100841	0	
0.000211127	-0.00100984	0	
0.0001966	-0.00101087	0	
0.000182197	-0.00101148	0	
0.000167856	-0.00101168	0	
0.000153513	-0.00101147	0	
0.000139106	-0.00101085	0	
0.000124572	-0.00100982	0	
0.000109852	-0.00100839	0	
9.4884e-005	-0.00100654	0	
0.000245536	-0.000990968	0	
0.00022962	-0.000992763	0	
0.000213958	-0.000994159	0	
0.000198485	-0.000995155	0	
0.000183138	-0.000995751	0	
0.000167853	-0.000995947	0	
0.000152567	-0.000995745	0	
0.000137217	-0.000995144	0	
0.000121742	-0.000994145	0	
0.000106079	-0.000992749	0	
9.01674e-005	-0.000990955	0	
0.000250125	-0.000974442	0	
0.000233292	-0.000976187	0	
0.000216711	-0.000977544	0	
0.00020032	-0.000978513	0	
0.000184054	-0.000979093	0	
0.000167851	-0.000979285	0	
0.000151647	-0.000979089	0	
0.000135381	-0.000978506	0	
0.000118989	-0.000977536	0	