# vtk DataFile Version 4.1
vtk output
ASCII
DATASET UNSTRUCTURED_GRID

POINTS	14721	float
0	0	0	
0	1.25	0	
0	2.5	0	
0	3.75	0	
0	5	0	
0	6.25	0	
0	7.5	0	
0	8.75	0	
0	10	0	
0	11.25	0	
0	12.5	0	
0	13.75	0	
0	15	0	
0	16.25	0	
0	17.5	0	
0	18.75	0	
0	20	0	
0	21.25	0	
0	22.5	0	
0	23.75	0	
0	25	0	
0	26.25	0	
0	27.5	0	
0	28.75	0	
0	30	0	
0	31.25	0	
0	32.5	0	
0	33.75	0	
0	35	0	
0	36.25	0	
0	37.5	0	
0	38.75	0	
0	40	0	
0	41.25	0	
0	42.5	0	
0	43.75	0	
0	45	0	
0	46.25	0	
0	47.5	0	
0	48.75	0	
0	50	0	
1.25	0	0	
1.25	1.25	0	
1.25	2.5	0	
1.25	3.75	0	
1.25	5	0	
1.25	6.25	0	
1.25	7.5	0	
1.25	8.75	0	
1.25	10	0	
1.25	11.25	0	
1.25	12.5	0	
1.25	13.75	0	
1.25	15	0	
1.25	16.25	0	
1.25	17.5	0	
1.25	18.75	0	
1.25	20	0	
1.25	21.25	0	
1.25	22.5	0	
1.25	23.75	0	
1.25	25	0	
1.25	26.25	0	
1.25	27.5	0	
1.25	28.75	0	
1.25	30	0	
1.25	31.25	0	
1.25	32.5	0	
1.25	33.75	0	
1.25	35	0	
1.25	36.25	0	
1.25	37.5	0	
1.25	38.75	0	
1.25	40	0	
1.25	41.25	0	
1.25	42.5	0	
1.25	43.75	0	
1.25	45	0	
1.25	46.25	0	
1.25	47.5	0	
1.25	48.75	0	
1.25	50	0	
2.5	0	0	
2.5	1.25	0	
2.5	2.5	0	
2.5	3.75	0	
2.5	5	0	
2.5	6.25	0	
2.5	7.5	0	
2.5	8.75	0	
2.5	10	0	
2.5	11.25	0	
2.5	12.5	0	
2.5	13.75	0	
2.5	15	0	
2.5	16.25	0	
2.5	17.5	0	
2.5	18.75	0	
2.5	20	0	
2.5	21.25	0	
2.5	22.5	0	
2.5	23.75	0	
2.5	25	0	
2.5	26.25	0	
2.5	27.5	0	
2.5	28.75	0	
2.5	30	0	
2.5	31.25	0	
2.5	32.5	0	
2.5	33.75	0	
2.5	35	0	
2.5	36.25	0	
2.5	37.5	0	
2.5	38.75	0	
2.5	40	0	
2.5	41.25	0	
2.5	42.5	0	
2.5	43.75	0	
2.5	45	0	
2.5	46.25	0	
2.5	47.5	0	
2.5	48.75	0	
2.5	50	0	
3.75	0	0	
3.75	1.25	0	
3.75	2.5	0	
3.75	3.75	0	
3.75	5	0	
3.75	6.25	0	
3.75	7.5	0	
3.75	8.75	0	
3.75	10	0	
3.75	11.25	0	
3.75	12.5	0	
3.75	13.75	0	
3.75	15	0	
3.75	16.25	0	
3.75	17.5	0	
3.75	18.75	0	
3.75	20	0	
3.75	21.25	0	
3.75	22.5	0	
3.75	23.75	0	
3.75	25	0	
3.75	26.25	0	
3.75	27.5	0	
3.75	28.75	0	
3.75	30	0	
3.75	31.25	0	
3.75	32.5	0	
3.75	33.75	0	
3.75	35	0	
3.75	36.25	0	
3.75	37.5	0	
3.75	38.75	0	
3.75	40	0	
3.75	41.25	0	
3.75	42.5	0	
3.75	43.75	0	
3.75	45	0	
3.75	46.25	0	
3.75	47.5	0	
3.75	48.75	0	
3.75	50	0	
5	0	0	
5	1.25	0	
5	2.5	0	
5	3.75	0	
5	5	0	
5	6.25	0	
5	7.5	0	
5	8.75	0	
5	10	0	
5	11.25	0	
5	12.5	0	
5	13.75	0	
5	15	0	
5	16.25	0	
5	17.5	0	
5	18.75	0	
5	20	0	
5	21.25	0	
5	22.5	0	
5	23.75	0	
5	25	0	
5	26.25	0	
5	27.5	0	
5	28.75	0	
5	30	0	
5	31.25	0	
5	32.5	0	
5	33.75	0	
5	35	0	
5	36.25	0	
5	37.5	0	
5	38.75	0	
5	40	0	
5	41.25	0	
5	42.5	0	
5	43.75	0	
5	45	0	
5	46.25	0	
5	47.5	0	
5	48.75	0	
5	50	0	
6.25	0	0	
6.25	1.25	0	
6.25	2.5	0	
6.25	3.75	0	
6.25	5	0	
6.25	6.25	0	
6.25	7.5	0	
6.25	8.75	0	
6.25	10	0	
6.25	11.25	0	
6.25	12.5	0	
6.25	13.75	0	
6.25	15	0	
6.25	16.25	0	
6.25	17.5	0	
6.25	18.75	0	
6.25	20	0	
6.25	21.25	0	
6.25	22.5	0	
6.25	23.75	0	
6.25	25	0	
6.25	26.25	0	
6.25	27.5	0	
6.25	28.75	0	
6.25	30	0	
6.25	31.25	0	
6.25	32.5	0	
6.25	33.75	0	
6.25	35	0	
6.25	36.25	0	
6.25	37.5	0	
6.25	38.75	0	
6.25	40	0	
6.25	41.25	0	
6.25	42.5	0	
6.25	43.75	0	
6.25	45	0	
6.25	46.25	0	
6.25	47.5	0	
6.25	48.75	0	
6.25	50	0	
7.5	0	0	
7.5	1.25	0	
7.5	2.5	0	
7.5	3.75	0	
7.5	5	0	
7.5	6.25	0	
7.5	7.5	0	
7.5	8.75	0	
7.5	10	0	
7.5	11.25	0	
7.5	12.5	0	
7.5	13.75	0	
7.5	15	0	
7.5	16.25	0	
7.5	17.5	0	
7.5	18.75	0	
7.5	20	0	
7.5	21.25	0	
7.5	22.5	0	
7.5	23.75	0	
7.5	25	0	
7.5	26.25	0	
7.5	27.5	0	
7.5	28.75	0	
7.5	30	0	
7.5	31.25	0	
7.5	32.5	0	
7.5	33.75	0	
7.5	35	0	
7.5	36.25	0	
7.5	37.5	0	
7.5	38.75	0	
7.5	40	0	
7.5	41.25	0	
7.5	42.5	0	
7.5	43.75	0	
7.5	45	0	
7.5	46.25	0	
7.5	47.5	0	
7.5	48.75	0	
7.5	50	0	
8.75	0	0	
8.75	1.25	0	
8.75	2.5	0	
8.75	3.75	0	
8.75	5	0	
8.75	6.25	0	
8.75	7.5	0	
8.75	8.75	0	
8.75	10	0	
8.75	11.25	0	
8.75	12.5	0	
8.75	13.75	0	
8.75	15	0	
8.75	16.25	0	
8.75	17.5	0	
8.75	18.75	0	
8.75	20	0	
8.75	21.25	0	
8.75	22.5	0	
8.75	23.75	0	
8.75	25	0	
8.75	26.25	0	
8.75	27.5	0	
8.75	28.75	0	
8.75	30	0	
8.75	31.25	0	
8.75	32.5	0	
8.75	33.75	0	
8.75	35	0	
8.75	36.25	0	
8.75	37.5	0	
8.75	38.75	0	
8.75	40	0	
8.75	41.25	0	
8.75	42.5	0	
8.75	43.75	0	
8.75	45	0	
8.75	46.25	0	
8.75	47.5	0	
8.75	48.75	0	
8.75	50	0	
10	0	0	
10	1.25	0	
10	2.5	0	
10	3.75	0	
10	5	0	
10	6.25	0	
10	7.5	0	
10	8.75	0	
10	10	0	
10	11.25	0	
10	12.5	0	
10	13.75	0	
10	15	0	
10	16.25	0	
10	17.5	0	
10	18.75	0	
10	20	0	
10	21.25	0	
10	22.5	0	
10	23.75	0	
10	25	0	
10	26.25	0	
10	27.5	0	
10	28.75	0	
10	30	0	
10	31.25	0	
10	32.5	0	
10	33.75	0	
10	35	0	
10	36.25	0	
10	37.5	0	
10	38.75	0	
10	40	0	
10	41.25	0	
10	42.5	0	
10	43.75	0	
10	45	0	
10	46.25	0	
10	47.5	0	
10	48.75	0	
10	50	0	
11.25	0	0	
11.25	1.25	0	
11.25	2.5	0	
11.25	3.75	0	
11.25	5	0	
11.25	6.25	0	
11.25	7.5	0	
11.25	8.75	0	
11.25	10	0	
11.25	11.25	0	
11.25	12.5	0	
11.25	13.75	0	
11.25	15	0	
11.25	16.25	0	
11.25	17.5	0	
11.25	18.75	0	
11.25	20	0	
11.25	21.25	0	
11.25	22.5	0	
11.25	23.75	0	
11.25	25	0	
11.25	26.25	0	
11.25	27.5	0	
11.25	28.75	0	
11.25	30	0	
11.25	31.25	0	
11.25	32.5	0	
11.25	33.75	0	
11.25	35	0	
11.25	36.25	0	
11.25	37.5	0	
11.25	38.75	0	
11.25	40	0	
11.25	41.25	0	
11.25	42.5	0	
11.25	43.75	0	
11.25	45	0	
11.25	46.25	0	
11.25	47.5	0	
11.25	48.75	0	
11.25	50	0	
12.5	0	0	
12.5	1.25	0	
12.5	2.5	0	
12.5	3.75	0	
12.5	5	0	
12.5	6.25	0	
12.5	7.5	0	
12.5	8.75	0	
12.5	10	0	
12.5	11.25	0	
12.5	12.5	0	
12.5	13.75	0	
12.5	15	0	
12.5	16.25	0	
12.5	17.5	0	
12.5	18.75	0	
12.5	20	0	
12.5	21.25	0	
12.5	22.5	0	
12.5	23.75	0	
12.5	25	0	
12.5	26.25	0	
12.5	27.5	0	
12.5	28.75	0	
12.5	30	0	
12.5	31.25	0	
12.5	32.5	0	
12.5	33.75	0	
12.5	35	0	
12.5	36.25	0	
12.5	37.5	0	
12.5	38.75	0	
12.5	40	0	
12.5	41.25	0	
12.5	42.5	0	
12.5	43.75	0	
12.5	45	0	
12.5	46.25	0	
12.5	47.5	0	
12.5	48.75	0	
12.5	50	0	
13.75	0	0	
13.75	1.25	0	
13.75	2.5	0	
13.75	3.75	0	
13.75	5	0	
13.75	6.25	0	
13.75	7.5	0	
13.75	8.75	0	
13.75	10	0	
13.75	11.25	0	
13.75	12.5	0	
13.75	13.75	0	
13.75	15	0	
13.75	16.25	0	
13.75	17.5	0	
13.75	18.75	0	
13.75	20	0	
13.75	21.25	0	
13.75	22.5	0	
13.75	23.75	0	
13.75	25	0	
13.75	26.25	0	
13.75	27.5	0	
13.75	28.75	0	
13.75	30	0	
13.75	31.25	0	
13.75	32.5	0	
13.75	33.75	0	
13.75	35	0	
13.75	36.25	0	
13.75	37.5	0	
13.75	38.75	0	
13.75	40	0	
13.75	41.25	0	
13.75	42.5	0	
13.75	43.75	0	
13.75	45	0	
13.75	46.25	0	
13.75	47.5	0	
13.75	48.75	0	
13.75	50	0	
15	0	0	
15	1.25	0	
15	2.5	0	
15	3.75	0	
15	5	0	
15	6.25	0	
15	7.5	0	
15	8.75	0	
15	10	0	
15	11.25	0	
15	12.5	0	
15	13.75	0	
15	15	0	
15	16.25	0	
15	17.5	0	
15	18.75	0	
15	20	0	
15	21.25	0	
15	22.5	0	
15	23.75	0	
15	25	0	
15	26.25	0	
15	27.5	0	
15	28.75	0	
15	30	0	
15	31.25	0	
15	32.5	0	
15	33.75	0	
15	35	0	
15	36.25	0	
15	37.5	0	
15	38.75	0	
15	40	0	
15	41.25	0	
15	42.5	0	
15	43.75	0	
15	45	0	
15	46.25	0	
15	47.5	0	
15	48.75	0	
15	50	0	
16.25	0	0	
16.25	1.25	0	
16.25	2.5	0	
16.25	3.75	0	
16.25	5	0	
16.25	6.25	0	
16.25	7.5	0	
16.25	8.75	0	
16.25	10	0	
16.25	11.25	0	
16.25	12.5	0	
16.25	13.75	0	
16.25	15	0	
16.25	16.25	0	
16.25	17.5	0	
16.25	18.75	0	
16.25	20	0	
16.25	21.25	0	
16.25	22.5	0	
16.25	23.75	0	
16.25	25	0	
16.25	26.25	0	
16.25	27.5	0	
16.25	28.75	0	
16.25	30	0	
16.25	31.25	0	
16.25	32.5	0	
16.25	33.75	0	
16.25	35	0	
16.25	36.25	0	
16.25	37.5	0	
16.25	38.75	0	
16.25	40	0	
16.25	41.25	0	
16.25	42.5	0	
16.25	43.75	0	
16.25	45	0	
16.25	46.25	0	
16.25	47.5	0	
16.25	48.75	0	
16.25	50	0	
17.5	0	0	
17.5	1.25	0	
17.5	2.5	0	
17.5	3.75	0	
17.5	5	0	
17.5	6.25	0	
17.5	7.5	0	
17.5	8.75	0	
17.5	10	0	
17.5	11.25	0	
17.5	12.5	0	
17.5	13.75	0	
17.5	15	0	
17.5	16.25	0	
17.5	17.5	0	
17.5	18.75	0	
17.5	20	0	
17.5	21.25	0	
17.5	22.5	0	
17.5	23.75	0	
17.5	25	0	
17.5	26.25	0	
17.5	27.5	0	
17.5	28.75	0	
17.5	30	0	
17.5	31.25	0	
17.5	32.5	0	
17.5	33.75	0	
17.5	35	0	
17.5	36.25	0	
17.5	37.5	0	
17.5	38.75	0	
17.5	40	0	
17.5	41.25	0	
17.5	42.5	0	
17.5	43.75	0	
17.5	45	0	
17.5	46.25	0	
17.5	47.5	0	
17.5	48.75	0	
17.5	50	0	
18.75	0	0	
18.75	1.25	0	
18.75	2.5	0	
18.75	3.75	0	
18.75	5	0	
18.75	6.25	0	
18.75	7.5	0	
18.75	8.75	0	
18.75	10	0	
18.75	11.25	0	
18.75	12.5	0	
18.75	13.75	0	
18.75	15	0	
18.75	16.25	0	
18.75	17.5	0	
18.75	18.75	0	
18.75	20	0	
18.75	21.25	0	
18.75	22.5	0	
18.75	23.75	0	
18.75	25	0	
18.75	26.25	0	
18.75	27.5	0	
18.75	28.75	0	
18.75	30	0	
18.75	31.25	0	
18.75	32.5	0	
18.75	33.75	0	
18.75	35	0	
18.75	36.25	0	
18.75	37.5	0	
18.75	38.75	0	
18.75	40	0	
18.75	41.25	0	
18.75	42.5	0	
18.75	43.75	0	
18.75	45	0	
18.75	46.25	0	
18.75	47.5	0	
18.75	48.75	0	
18.75	50	0	
20	0	0	
20	1.25	0	
20	2.5	0	
20	3.75	0	
20	5	0	
20	6.25	0	
20	7.5	0	
20	8.75	0	
20	10	0	
20	11.25	0	
20	12.5	0	
20	13.75	0	
20	15	0	
20	16.25	0	
20	17.5	0	
20	18.75	0	
20	20	0	
20	21.25	0	
20	22.5	0	
20	23.75	0	
20	25	0	
20	26.25	0	
20	27.5	0	
20	28.75	0	
20	30	0	
20	31.25	0	
20	32.5	0	
20	33.75	0	
20	35	0	
20	36.25	0	
20	37.5	0	
20	38.75	0	
20	40	0	
20	41.25	0	
20	42.5	0	
20	43.75	0	
20	45	0	
20	46.25	0	
20	47.5	0	
20	48.75	0	
20	50	0	
21.25	0	0	
21.25	1.25	0	
21.25	2.5	0	
21.25	3.75	0	
21.25	5	0	
21.25	6.25	0	
21.25	7.5	0	
21.25	8.75	0	
21.25	10	0	
21.25	11.25	0	
21.25	12.5	0	
21.25	13.75	0	
21.25	15	0	
21.25	16.25	0	
21.25	17.5	0	
21.25	18.75	0	
21.25	20	0	
21.25	21.25	0	
21.25	22.5	0	
21.25	23.75	0	
21.25	25	0	
21.25	26.25	0	
21.25	27.5	0	
21.25	28.75	0	
21.25	30	0	
21.25	31.25	0	
21.25	32.5	0	
21.25	33.75	0	
21.25	35	0	
21.25	36.25	0	
21.25	37.5	0	
21.25	38.75	0	
21.25	40	0	
21.25	41.25	0	
21.25	42.5	0	
21.25	43.75	0	
21.25	45	0	
21.25	46.25	0	
21.25	47.5	0	
21.25	48.75	0	
21.25	50	0	
22.5	0	0	
22.5	1.25	0	
22.5	2.5	0	
22.5	3.75	0	
22.5	5	0	
22.5	6.25	0	
22.5	7.5	0	
22.5	8.75	0	
22.5	10	0	
22.5	11.25	0	
22.5	12.5	0	
22.5	13.75	0	
22.5	15	0	
22.5	16.25	0	
22.5	17.5	0	
22.5	18.75	0	
22.5	20	0	
22.5	21.25	0	
22.5	22.5	0	
22.5	23.75	0	
22.5	25	0	
22.5	26.25	0	
22.5	27.5	0	
22.5	28.75	0	
22.5	30	0	
22.5	31.25	0	
22.5	32.5	0	
22.5	33.75	0	
22.5	35	0	
22.5	36.25	0	
22.5	37.5	0	
22.5	38.75	0	
22.5	40	0	
22.5	41.25	0	
22.5	42.5	0	
22.5	43.75	0	
22.5	45	0	
22.5	46.25	0	
22.5	47.5	0	
22.5	48.75	0	
22.5	50	0	
23.75	0	0	
23.75	1.25	0	
23.75	2.5	0	
23.75	3.75	0	
23.75	5	0	
23.75	6.25	0	
23.75	7.5	0	
23.75	8.75	0	
23.75	10	0	
23.75	11.25	0	
23.75	12.5	0	
23.75	13.75	0	
23.75	15	0	
23.75	16.25	0	
23.75	17.5	0	
23.75	18.75	0	
23.75	20	0	
23.75	21.25	0	
23.75	22.5	0	
23.75	23.75	0	
23.75	25	0	
23.75	26.25	0	
23.75	27.5	0	
23.75	28.75	0	
23.75	30	0	
[...]
POINT_DATA	14721
VECTORS u float
7.45402e-017	-0.00142527	0	
5.84697e-017	-0.00142683	0	
4.24028e-017	-0.00142801	0	
2.63487e-017	-0.00142881	0	
1.02952e-017	-0.00142924	0	
-1.01259e-017	-0.00142966	0	
-1.14432e-016	-0.00144361	0	
-9.83169e-017	-0.00145863	0	
-8.62639e-017	-0.00147448	0	
-7.7094e-017	-0.00149094	0	
-7.1295e-017	-0.00150787	0	
-6.71682e-017	-0.00152517	0	
-6.40558e-017	-0.00154278	0	
-6.24021e-017	-0.00156068	0	
-6.10587e-017	-0.00157887	0	
-6.10036e-017	-0.00159731	0	
-6.08724e-017	-0.00161604	0	
-6.13831e-017	-0.00163503	0	
-6.27544e-017	-0.0016543	0	
-6.40633e-017	-0.00167384	0	
-6.60977e-017	-0.00169366	0	
-6.85979e-017	-0.00171376	0	
-7.14728e-017	-0.00173415	0	
-7.49119e-017	-0.00175484	0	
-7.84281e-017	-0.00177583	0	
-8.30409e-017	-0.00179714	0	
-8.78438e-017	-0.00181877	0	
-9.33962e-017	-0.00184073	0	
-9.93396e-017	-0.00186303	0	
-1.06817e-016	-0.00188567	0	
-1.14539e-016	-0.00190866	0	
-1.23901e-016	-0.001932	0	
-1.34604e-016	-0.00195567	0	
-1.47659e-016	-0.00197965	0	
-1.62611e-016	-0.00200386	0	
-8.16828e-018	-0.00202812	0	
1.94037e-017	-0.00203188	0	
-8.74863e-018	-0.00203202	0	
-4.06132e-017	-0.00203145	0	
-7.24802e-017	-0.00203012	0	
-1.0435e-016	-0.00202806	0	
4.06999e-006	-0.00142483	0	
3.19236e-006	-0.00142639	0	
2.31487e-006	-0.00142757	0	
1.4385e-006	-0.00142837	0	
5.6228e-007	-0.0014288	0	
-1.42707e-007	-0.00142929	0	
1.15395e-006	-0.00144332	0	
2.26547e-006	-0.00145843	0	
3.10882e-006	-0.00147432	0	
3.71819e-006	-0.00149079	0	
4.16352e-006	-0.00150771	0	
4.49301e-006	-0.00152498	0	
4.74699e-006	-0.00154256	0	
4.94833e-006	-0.00156044	0	
5.11264e-006	-0.00157858	0	
5.24915e-006	-0.001597	0	
5.36043e-006	-0.00161569	0	
5.45072e-006	-0.00163465	0	
5.51954e-006	-0.00165389	0	
5.57065e-006	-0.00167339	0	
5.60149e-006	-0.00169318	0	
5.61504e-006	-0.00171325	0	
5.61085e-006	-0.00173362	0	
5.5875e-006	-0.00175427	0	
5.54949e-006	-0.00177523	0	
5.49154e-006	-0.00179649	0	
5.41264e-006	-0.00181808	0	
5.31048e-006	-0.00183999	0	
5.17948e-006	-0.00186224	0	
5.01265e-006	-0.00188483	0	
4.80371e-006	-0.00190776	0	
4.53681e-006	-0.00193103	0	
4.19341e-006	-0.00195464	0	
3.74393e-006	-0.00197855	0	
3.15424e-006	-0.00200272	0	
2.40818e-006	-0.00202699	0	
1.01736e-006	-0.00203103	0	
-4.77568e-007	-0.00203115	0	
-2.21748e-006	-0.00203058	0	
-3.95746e-006	-0.00202925	0	
-5.69744e-006	-0.00202719	0	
8.14094e-006	-0.00142352	0	
6.3846e-006	-0.00142507	0	
4.62935e-006	-0.00142625	0	
2.87686e-006	-0.00142706	0	
1.12553e-006	-0.00142749	0	
-2.12046e-007	-0.00142818	0	
2.51059e-006	-0.00144252	0	
4.70457e-006	-0.00145788	0	
6.31295e-006	-0.00147389	0	
7.47496e-006	-0.00149037	0	
8.32518e-006	-0.00150723	0	
8.96735e-006	-0.00152442	0	
9.46467e-006	-0.00154191	0	
9.86287e-006	-0.00155968	0	
1.01894e-005	-0.00157774	0	
1.04585e-005	-0.00159606	0	
1.06812e-005	-0.00161465	0	
1.08594e-005	-0.00163352	0	
1.10001e-005	-0.00165266	0	
1.10985e-005	-0.00167207	0	
1.11628e-005	-0.00169176	0	
1.11883e-005	-0.00171174	0	
1.11779e-005	-0.001732	0	
1.11337e-005	-0.00175255	0	
1.1052e-005	-0.0017734	0	
1.09335e-005	-0.00179455	0	
1.07723e-005	-0.00181602	0	
1.05616e-005	-0.0018378	0	
1.0294e-005	-0.0018599	0	
9.95507e-006	-0.00188232	0	
9.53012e-006	-0.00190507	0	
8.99621e-006	-0.00192814	0	
8.31704e-006	-0.00195154	0	
7.44412e-006	-0.00197525	0	
6.29809e-006	-0.00199924	0	
4.85722e-006	-0.00202344	0	
2.0646e-006	-0.00202846	0	
-9.55047e-007	-0.00202854	0	
-4.43495e-006	-0.00202797	0	
-7.91494e-006	-0.00202664	0	
-1.13949e-005	-0.00202458	0	
1.22138e-005	-0.00142132	0	
9.57678e-006	-0.00142288	0	
6.94418e-006	-0.00142406	0	
4.31517e-006	-0.00142487	0	
1.69073e-006	-0.0014253	0	
6.18662e-008	-0.00142654	0	
4.35255e-006	-0.00144151	0	
7.45468e-006	-0.00145721	0	
9.66257e-006	-0.00147328	0	
1.12695e-005	-0.00148969	0	
1.24722e-005	-0.00150642	0	
1.33941e-005	-0.00152346	0	
1.41214e-005	-0.0015408	0	
1.47101e-005	-0.00155842	0	
1.51918e-005	-0.00157631	0	
1.55927e-005	-0.00159448	0	
1.59212e-005	-0.00161292	0	
1.61893e-005	-0.00163163	0	
1.63951e-005	-0.00165061	0	
1.65483e-005	-0.00166987	0	
1.66389e-005	-0.00168941	0	
1.66784e-005	-0.00170922	0	
1.66631e-005	-0.00172932	0	
1.65903e-005	-0.0017497	0	
1.64643e-005	-0.00177038	0	
1.62778e-005	-0.00179134	0	
1.60249e-005	-0.0018126	0	
1.56982e-005	-0.00183416	0	
1.52796e-005	-0.00185602	0	
1.47571e-005	-0.00187818	0	
1.41055e-005	-0.00190063	0	
1.32982e-005	-0.00192338	0	
1.22881e-005	-0.00194641	0	
1.10147e-005	-0.00196974	0	
9.34323e-006	-0.00199335	0	
7.26212e-006	-0.00201724	0	
3.24296e-006	-0.00202411	0	
-1.43243e-006	-0.00202419	0	
-6.6524e-006	-0.00202362	0	
-1.18724e-005	-0.00202229	0	
-1.70924e-005	-0.00202023	0	
1.62876e-005	-0.00141824	0	
1.27699e-005	-0.0014198	0	
9.26493e-006	-0.00142099	0	
5.75426e-006	-0.00142181	0	
2.25721e-006	-0.00142224	0	
1.28884e-006	-0.00142543	0	
6.82723e-006	-0.00144096	0	
1.04885e-005	-0.00145668	0	
1.31006e-005	-0.00147257	0	
1.5062e-005	-0.00148876	0	
1.65632e-005	-0.00150527	0	
1.77421e-005	-0.00152208	0	
1.8684e-005	-0.00153919	0	
1.9453e-005	-0.0015566	0	
2.00892e-005	-0.00157428	0	
2.06128e-005	-0.00159224	0	
2.10494e-005	-0.00161047	0	
2.13993e-005	-0.00162898	0	
2.16757e-005	-0.00164775	0	
2.18718e-005	-0.0016668	0	
2.19972e-005	-0.00168612	0	
2.20463e-005	-0.00170571	0	
2.20206e-005	-0.00172559	0	
2.19215e-005	-0.00174574	0	
2.17393e-005	-0.00176617	0	
2.14779e-005	-0.00178688	0	
2.11241e-005	-0.00180786	0	
2.06641e-005	-0.00182913	0	
2.00833e-005	-0.00185066	0	
1.93576e-005	-0.00187246	0	
1.84625e-005	-0.00189452	0	
1.73617e-005	-0.00191682	0	
1.60074e-005	-0.00193935	0	
1.43346e-005	-0.00196211	0	
1.2167e-005	-0.00198505	0	
9.45122e-006	-0.00200827	0	
4.46935e-006	-0.00201801	0	
-1.90976e-006	-0.0020181	0	
-8.86982e-006	-0.00201753	0	
-1.58299e-005	-0.0020162	0	
-2.279e-005	-0.00201414	0	
2.03499e-005	-0.00141426	0	
1.59668e-005	-0.00141581	0	
1.16112e-005	-0.00141704	0	
7.19967e-006	-0.00141791	0	
2.81009e-006	-0.00141834	0	
3.94829e-006	-0.00142658	0	
9.57864e-006	-0.00144121	0	
1.35462e-005	-0.00145614	0	
1.65128e-005	-0.00147161	0	
1.87864e-005	-0.00148747	0	
2.05652e-005	-0.00150368	0	
2.19775e-005	-0.00152021	0	
2.31249e-005	-0.00153706	0	
2.40686e-005	-0.0015542	0	
2.48477e-005	-0.00157162	0	
2.54985e-005	-0.00158933	0	
2.60322e-005	-0.00160731	0	
2.64673e-005	-0.00162556	0	
2.68019e-005	-0.00164407	0	
2.70473e-005	-0.00166286	0	
2.7197e-005	-0.00168191	0	
2.72546e-005	-0.00170123	0	
2.7219e-005	-0.00172083	0	
2.70797e-005	-0.00174069	0	
2.68422e-005	-0.00176081	0	
2.64923e-005	-0.0017812	0	
2.60233e-005	-0.00180184	0	
2.54189e-005	-0.00182274	0	
2.46556e-005	-0.00184388	0	
2.37094e-005	-0.00186525	0	
2.25459e-005	-0.00188684	0	
2.11262e-005	-0.00190861	0	
1.9392e-005	-0.00193055	0	
1.72726e-005	-0.00195261	0	
1.45548e-005	-0.00197466	0	
1.11219e-005	-0.00199679	0	
5.81032e-006	-0.00201015	0	
-2.38705e-006	-0.00201027	0	
-1.10872e-005	-0.0020097	0	
-1.97874e-005	-0.00200837	0	
-2.84876e-005	-0.00200631	0	
2.43519e-005	-0.00140937	0	
1.91713e-005	-0.00141091	0	
1.4036e-005	-0.0014122	0	
8.67318e-006	-0.00141317	0	
3.29999e-006	-0.0014136	0	
6.55858e-006	-0.00142624	0	
1.20906e-005	-0.00144033	0	
1.65539e-005	-0.00145497	0	
1.98691e-005	-0.00147013	0	
2.24318e-005	-0.00148568	0	
2.445e-005	-0.00150157	0	
2.60858e-005	-0.0015178	0	
2.7424e-005	-0.00153434	0	
2.85312e-005	-0.00155118	0	
2.94555e-005	-0.00156831	0	
3.0219e-005	-0.00158573	0	
3.08525e-005	-0.00160342	0	
3.13601e-005	-0.00162137	0	
3.17557e-005	-0.00163959	0	
3.20382e-005	-0.00165807	0	
3.22118e-005	-0.00167681	0	
3.22719e-005	-0.0016958	0	
3.22134e-005	-0.00171506	0	
3.20371e-005	-0.00173457	0	
3.17279e-005	-0.00175433	0	
3.12835e-005	-0.00177434	0	
3.06887e-005	-0.00179458	0	
2.99241e-005	-0.00181505	0	
2.89642e-005	-0.00183574	0	
2.778e-005	-0.00185664	0	
2.63298e-005	-0.00187771	0	
2.45673e-005	-0.00189893	0	
2.24244e-005	-0.00192025	0	
1.98181e-005	-0.00194163	0	
1.65369e-005	-0.00196293	0	
1.24697e-005	-0.00198421	0	
7.10825e-006	-0.00200057	0	
-2.86433e-006	-0.0020007	0	
-1.33046e-005	-0.00200013	0	
-2.37449e-005	-0.0019988	0	
-3.41852e-005	-0.00199673	0	
2.81837e-005	-0.00140366	0	
2.2366e-005	-0.00140513	0	
1.66222e-005	-0.00140645	0	
1.02199e-005	-0.00140753	0	
3.43024e-006	-0.00140785	0	
9.85287e-006	-0.00142264	0	
1.53276e-005	-0.00143781	0	
1.982e-005	-0.00145294	0	
2.32637e-005	-0.001468	0	
2.60053e-005	-0.00148328	0	
2.82274e-005	-0.00149887	0	
3.00506e-005	-0.00151477	0	
3.15682e-005	-0.00153099	0	
3.28345e-005	-0.00154751	0	
3.38868e-005	-0.00156433	0	
3.47656e-005	-0.00158143	0	
3.54834e-005	-0.00159879	0	
3.60628e-005	-0.00161642	0	
3.65059e-005	-0.0016343	0	
3.6824e-005	-0.00165244	0	
3.70108e-005	-0.00167081	0	
3.70637e-005	-0.00168944	0	
3.69807e-005	-0.00170831	0	
3.67494e-005	-0.00172742	0	
3.63656e-005	-0.00174676	0	
3.58169e-005	-0.00176633	0	
3.5087e-005	-0.00178612	0	
3.4155e-005	-0.00180612	0	
3.29898e-005	-0.00182632	0	
3.15583e-005	-0.0018467	0	
2.98137e-005	-0.00186724	0	
2.77047e-005	-0.0018879	0	
2.51569e-005	-0.00190866	0	
2.20865e-005	-0.00192946	0	
1.83371e-005	-0.00195025	0	
1.38524e-005	-0.00197109	0	
8.42006e-006	-0.00198925	0	
-3.3416e-006	-0.00198939	0	
-1.5522e-005	-0.00198882	0	
-2.77024e-005	-0.00198749	0	
-3.98828e-005	-0.00198542	0	
3.17184e-005	-0.00139736	0	
2.54927e-005	-0.00139874	0	
1.93282e-005	-0.00139991	0	
1.20943e-005	-0.00140071	0	
3.34271e-006	-0.00140076	0	
1.4284e-005	-0.00142041	0	
1.92644e-005	-0.00143569	0	
2.33126e-005	-0.00145043	0	
2.66868e-005	-0.00146522	0	
2.95187e-005	-0.00148021	0	
3.18872e-005	-0.00149548	0	
3.38816e-005	-0.00151107	0	
3.55567e-005	-0.00152698	0	
3.69645e-005	-0.00154318	0	
3.81444e-005	-0.00155967	0	
3.91183e-005	-0.00157643	0	
3.99175e-005	-0.00159345	0	
4.0554e-005	-0.00161071	0	
4.10391e-005	-0.00162823	0	
4.13778e-005	-0.00164598	0	
4.15705e-005	-0.00166396	0	
4.16065e-005	-0.00168218	0	
4.14831e-005	-0.00170062	0	
4.11935e-005	-0.00171927	0	
4.07236e-005	-0.00173815	0	
4.00624e-005	-0.00175724	0	
3.91943e-005	-0.00177653	0	
3.80904e-005	-0.00179601	0	
3.67191e-005	-0.00181568	0	
3.50406e-005	-0.00183553	0	
3.30095e-005	-0.00185551	0	
3.05666e-005	-0.00187563	0	
2.76532e-005	-0.00189584	0	
2.41903e-005	-0.00191615	0	
2.00788e-005	-0.00193655	0	
1.53112e-005	-0.00195708	0	
9.67661e-006	-0.0019762	0	
-3.81885e-006	-0.00197634	0	
-1.77394e-005	-0.00197577	0	
-3.16599e-005	-0.00197444	0	
-4.55805e-005	-0.00197237	0	
3.49678e-005	-0.00139086	0	
2.85516e-005	-0.00139218	0	
2.21813e-005	-0.0013934	0	
1.57211e-005	-0.00139463	0	
1.29781e-005	-0.00140682	0	
1.8174e-005	-0.00142014	0	
2.27942e-005	-0.00143334	0	
2.66719e-005	-0.00144737	0	
3.00375e-005	-0.00146173	0	
3.29481e-005	-0.0014764	0	
3.54491e-005	-0.00149139	0	
3.75811e-005	-0.00150669	0	
3.93975e-005	-0.00152228	0	
4.09311e-005	-0.00153816	0	
4.2214e-005	-0.00155431	0	
4.32764e-005	-0.00157072	0	
4.41401e-005	-0.00158738	0	
4.48224e-005	-0.00160427	0	
4.5336e-005	-0.00162139	0	
4.56854e-005	-0.00163872	0	
4.58653e-005	-0.00165628	0	
4.58738e-005	-0.00167404	0	
4.57003e-005	-0.001692	0	
4.53404e-005	-0.00171017	0	
4.47774e-005	-0.00172854	0	
4.39991e-005	-0.0017471	0	
4.29863e-005	-0.00176585	0	
4.1711e-005	-0.00178478	0	
4.01385e-005	-0.00180388	0	
3.82228e-005	-0.00182315	0	
3.59191e-005	-0.00184258	0	
3.31793e-005	-0.00186214	0	
2.99414e-005	-0.00188184	0	
2.61574e-005	-0.00190166	0	
2.17674e-005	-0.00192164	0	
1.67586e-005	-0.00194182	0	
1.09814e-005	-0.0019614	0	
-4.29611e-006	-0.00196155	0	
-1.99568e-005	-0.00196098	0	
-3.56174e-005	-0.00195965	0	
-5.12781e-005	-0.00195758	0	
3.80935e-005	-0.00138437	0	
3.16324e-005	-0.00138569	0	
2.51808e-005	-0.00138699	0	
1.87631e-005	-0.0013883	0	
1.84069e-005	-0.00140185	0	
2.18198e-005	-0.00141573	0	
2.60376e-005	-0.00142936	0	
2.98927e-005	-0.00144319	0	
3.33173e-005	-0.00145734	0	
3.63149e-005	-0.0014718	0	
3.89219e-005	-0.00148655	0	
4.11752e-005	-0.00150159	0	
4.31009e-005	-0.0015169	0	
4.47353e-005	-0.00153247	0	
4.6103e-005	-0.00154828	0	
4.72311e-005	-0.00156434	0	
4.81432e-005	-0.00158061	0	
4.8858e-005	-0.0015971	0	
4.93837e-005	-0.0016138	0	
4.97246e-005	-0.0016307	0	
4.98822e-005	-0.00164779	0	
4.98444e-005	-0.00166506	0	
4.96098e-005	-0.00168252	0	
4.91659e-005	-0.00170016	0	
4.85033e-005	-0.00171797	0	
4.76013e-005	-0.00173597	0	
4.6444e-005	-0.00175413	0	
4.50008e-005	-0.00177247	0	
4.32311e-005	-0.00179097	0	
4.10956e-005	-0.00180964	0	
3.8546e-005	-0.00182846	0	
3.55362e-005	-0.00184745	0	
3.20226e-005	-0.0018666	0	
2.7969e-005	-0.00188592	0	
2.33441e-005	-0.00190544	0	
1.81452e-005	-0.0019252	0	
1.22244e-005	-0.00194487	0	
-4.77335e-006	-0.00194502	0	
-2.21741e-005	-0.00194444	0	
-3.95749e-005	-0.00194312	0	
-5.69757e-005	-0.00194105	0	
4.12014e-005	-0.00137789	0	
3.47308e-005	-0.00137923	0	
2.82659e-005	-0.00138055	0	
2.18049e-005	-0.00138186	0	
2.29441e-005	-0.00139569	0	
2.58369e-005	-0.00140985	0	
2.95173e-005	-0.00142388	0	
3.32192e-005	-0.0014379	0	
3.6623e-005	-0.00145205	0	
3.96668e-005	-0.0014664	0	
4.23456e-005	-0.00148099	0	
4.4676e-005	-0.0014958	0	
4.66836e-005	-0.00151085	0	
4.83858e-005	-0.00152612	0	
4.98113e-005	-0.0015416	0	
5.09828e-005	-0.00155729	0	
5.19236e-005	-0.00157318	0	
5.26478e-005	-0.00158925	0	
5.31677e-005	-0.0016055	0	
5.34854e-005	-0.00162194	0	
5.35985e-005	-0.00163853	0	
5.35044e-005	-0.00165529	0	
5.31896e-005	-0.00167221	0	
5.26518e-005	-0.00168928	0	
5.18757e-005	-0.00170651	0	
5.0848e-005	-0.00172389	0	
4.95442e-005	-0.00174143	0	
4.79338e-005	-0.00175913	0	
4.59803e-005	-0.00177698	0	
4.36387e-005	-0.001795	0	
4.08678e-005	-0.00181319	0	
3.76214e-005	-0.00183155	0	
3.38636e-005	-0.00185011	0	
2.95752e-005	-0.00186887	0	
2.47582e-005	-0.00188787	0	
1.9425e-005	-0.00190714	0	
1.34524e-005	-0.00192661	0	
-5.25058e-006	-0.00192675	0	
-2.43915e-005	-0.00192617	0	
-4.35324e-005	-0.00192485	0	
-6.26733e-005	-0.00192278	0	
4.43162e-005	-0.00137142	0	
3.78292e-005	-0.00137275	0	
3.13436e-005	-0.00137407	0	
2.48599e-005	-0.00137539	0	
2.69591e-005	-0.00138925	0	
2.9827e-005	-0.00140344	0	
3.32177e-005	-0.00141764	0	
3.67048e-005	-0.0014318	0	
4.00222e-005	-0.001446	0	
4.30454e-005	-0.0014603	0	
4.57428e-005	-0.00147476	0	
4.81093e-005	-0.00148938	0	
5.01521e-005	-0.00150417	0	
5.18906e-005	-0.00151915	0	
5.33419e-005	-0.0015343	0	
5.45306e-005	-0.00154962	0	
5.54721e-005	-0.0015651	0	
5.61853e-005	-0.00158075	0	
5.66764e-005	-0.00159654	0	
5.69498e-005	-0.00161248	0	
5.70038e-005	-0.00162857	0	
5.68297e-005	-0.00164478	0	
5.64248e-005	-0.00166112	0	
5.57768e-005	-0.0016776	0	
5.48792e-005	-0.0016942	0	
5.37129e-005	-0.00171094	0	
5.22594e-005	-0.0017278	0	
5.04837e-005	-0.00174481	0	
4.83508e-005	-0.00176196	0	
4.58196e-005	-0.00177927	0	
4.28469e-005	-0.00179675	0	
3.93917e-005	-0.00181442	0	
3.54201e-005	-0.00183231	0	
3.09222e-005	-0.00185045	0	
2.5921e-005	-0.00186885	0	
2.0506e-005	-0.00188754	0	
1.45398e-005	-0.00190665	0	
-5.72781e-006	-0.00190674	0	
-2.66089e-005	-0.00190616	0	
-4.74899e-005	-0.00190484	0	
-6.83709e-005	-0.00190277	0	
4.74335e-005	-0.00136492	0	
4.09275e-005	-0.00136625	0	
3.44216e-005	-0.00136758	0	
2.79158e-005	-0.00136889	0	
3.06501e-005	-0.00138273	0	
3.36813e-005	-0.00139683	0	
3.69615e-005	-0.00141102	0	
4.0296e-005	-0.00142521	0	
4.34953e-005	-0.0014394	0	
4.64562e-005	-0.00145363	0	
4.91214e-005	-0.00146795	0	
5.14751e-005	-0.00148238	0	
5.35158e-005	-0.00149693	0	
5.52498e-005	-0.00151161	0	
5.66963e-005	-0.00152642	0	
5.78695e-005	-0.00154137	0	
5.87872e-005	-0.00155644	0	
5.94599e-005	-0.00157164	0	
5.99012e-005	-0.00158696	0	
6.01089e-005	-0.00160239	0	
6.0079e-005	-0.00161793	0	
5.98104e-005	-0.00163357	0	
5.9293e-005	-0.00164932	0	
5.85232e-005	-0.00166516	0	
5.74873e-005	-0.00168111	0	
5.61746e-005	-0.00169715	0	
5.45597e-005	-0.0017133	0	
5.2616e-005	-0.00172957	0	
5.03043e-005	-0.00174596	0	
4.75899e-005	-0.00176249	0	
4.44299e-005	-0.00177918	0	
4.07881e-005	-0.00179606	0	
3.66335e-005	-0.00181317	0	
3.19446e-005	-0.00183057	0	
2.67488e-005	-0.00184829	0	
2.12581e-005	-0.00186634	0	
1.56466e-005	-0.00188491	0	
-6.20519e-006	-0.00188499	0	
-2.88261e-005	-0.00188441	0	
-5.14472e-005	-0.00188309	0	
-7.40687e-005	-0.00188102	0	
5.05514e-005	-0.00135841	0	
4.40252e-005	-0.00135974	0	
3.7499e-005	-0.00136106	0	
3.09727e-005	-0.00136238	0	
3.41669e-005	-0.00137613	0	
3.73909e-005	-0.00139011	0	
4.06643e-005	-0.00140419	0	
4.39e-005	-0.00141829	0	
4.69968e-005	-0.0014324	0	
4.98671e-005	-0.00144652	0	
5.24659e-005	-0.00146067	0	
5.47691e-005	-0.00147489	0	
5.67665e-005	-0.00148918	0	
5.84648e-005	-0.00150356	0	
5.98696e-005	-0.00151803	0	
6.09986e-005	-0.00153259	0	
6.18594e-005	-0.00154724	0	
6.24693e-005	-0.00156198	0	
6.28321e-005	-0.0015768	0	
6.29494e-005	-0.00159171	0	
6.28161e-005	-0.00160668	0	
6.24278e-005	-0.00162173	0	
6.17813e-005	-0.00163685	0	
6.08672e-005	-0.00165203	0	
5.96795e-005	-0.00166728	0	
5.82031e-005	-0.0016826	0	
5.64164e-005	-0.001698	0	
5.42913e-005	-0.00171347	0	
5.17954e-005	-0.00172903	0	
4.88915e-005	-0.00174469	0	
4.55448e-005	-0.00176049	0	
4.1725e-005	-0.00177645	0	
3.73988e-005	-0.00179264	0	
3.25512e-005	-0.00180911	0	
2.71741e-005	-0.00182602	0	
2.14574e-005	-0.00184337	0	
1.65831e-005	-0.00186148	0	
-6.68347e-006	-0.0018615	0	
-3.10427e-005	-0.00186092	0	
-5.5404e-005	-0.0018596	0	
-7.97674e-005	-0.00185753	0	
5.36694e-005	-0.00135187	0	
4.71228e-005	-0.0013532	0	
4.05763e-005	-0.00135453	0	
3.40297e-005	-0.00135584	0	
3.75706e-005	-0.00136947	0	
4.09761e-005	-0.00138329	0	
4.42802e-005	-0.00139721	0	
4.74628e-005	-0.00141115	0	
5.04663e-005	-0.0014251	0	
5.32419e-005	-0.00143905	0	
5.57513e-005	-0.00145301	0	
5.79724e-005	-0.00146699	0	
5.98986e-005	-0.001481	0	
6.15241e-005	-0.00149506	0	
6.28589e-005	-0.00150917	0	
6.39082e-005	-0.00152333	0	
6.46878e-005	-0.00153755	0	
6.52024e-005	-0.00155182	0	
6.54613e-005	-0.00156613	0	
6.54616e-005	-0.00158049	0	
6.51994e-005	-0.00159489	0	
6.46707e-005	-0.00160932	0	
6.38718e-005	-0.00162379	0	
6.27954e-005	-0.00163828	0	
6.14337e-005	-0.00165281	0	
5.97746e-005	-0.00166736	0	
5.77968e-005	-0.00168195	0	
5.54734e-005	-0.00169658	0	
5.2772e-005	-0.00171125	0	
4.96608e-005	-0.00172598	0	
4.61052e-005	-0.00174078	0	
4.20764e-005	-0.00175568	0	
3.75599e-005	-0.0017707	0	
3.25281e-005	-0.00178593	0	
2.70555e-005	-0.00180141	0	
2.11556e-005	-0.00181753	0	
1.69484e-005	-0.00183658	0	
-7.16541e-006	-0.00183627	0	
-3.32585e-005	-0.00183569	0	
-5.93602e-005	-0.00183436	0	
-8.54695e-005	-0.00183229	0	
5.67874e-005	-0.00134531	0	
5.02204e-005	-0.00134665	0	
4.36535e-005	-0.00134797	0	
3.70866e-005	-0.00134928	0	
4.08962e-005	-0.00136277	0	
4.445e-005	-0.0013764	0	
4.77994e-005	-0.00139011	0	
5.09428e-005	-0.00140385	0	
5.38671e-005	-0.00141759	0	
5.65428e-005	-0.00143132	0	
5.89473e-005	-0.00144503	0	
6.10684e-005	-0.00145874	0	
6.28913e-005	-0.00147245	0	
6.44211e-005	-0.00148617	0	
6.56513e-005	-0.00149991	0	
6.65959e-005	-0.00151366	0	
6.72612e-005	-0.00152743	0	
6.76547e-005	-0.00154121	0	
6.77798e-005	-0.001555	0	
6.76357e-005	-0.0015688	0	
6.72206e-005	-0.0015826	0	
6.65264e-005	-0.0015964	0	
6.55527e-005	-0.00161019	0	
6.429e-005	-0.00162398	0	
6.27327e-005	-0.00163775	0	
6.08671e-005	-0.00165151	0	
5.86741e-005	-0.00166527	0	
5.61263e-005	-0.00167901	0	
5.31917e-005	-0.00169274	0	
4.98348e-005	-0.00170646	0	
4.60263e-005	-0.00172017	0	
4.17293e-005	-0.00173388	0	
3.69162e-005	-0.00174757	0	
3.15435e-005	-0.00176119	0	
2.56064e-005	-0.00177472	0	
1.83344e-005	-0.00178713	0	
8.24241e-006	-0.00179852	0	
-7.64821e-006	-0.00180932	0	
-3.54801e-005	-0.00180874	0	
-6.33212e-005	-0.00180738	0	
-9.11745e-005	-0.0018053	0	
5.99053e-005	-0.00133874	0	
5.33181e-005	-0.00134007	0	
4.67308e-005	-0.00134139	0	
4.01435e-005	-0.00134271	0	
4.41537e-005	-0.00135601	0	
4.78283e-005	-0.00136943	0	
5.12088e-005	-0.0013829	0	
5.43216e-005	-0.0013964	0	
5.71672e-005	-0.00140989	0	
5.97403e-005	-0.00142336	0	
6.20313e-005	-0.0014368	0	
6.40293e-005	-0.0014502	0	
6.57349e-005	-0.00146358	0	
6.71368e-005	-0.00147695	0	
6.8242e-005	-0.00149029	0	
6.90507e-005	-0.00150362	0	
6.95746e-005	-0.00151693	0	
6.98176e-005	-0.00153021	0	