# vtk DataFile Version 4.1
vtk output
ASCII
DATASET UNSTRUCTURED_GRID

POINTS	14721	float
0	0	0	
0	1.25	0	
0	2.5	0	
0	3.75	0	
0	5	0	
0	6.25	0	
0	7.5	0	
0	8.75	0	
0	10	0	
0	11.25	0	
0	12.5	0	
0	13.75	0	
0	15	0	
0	16.25	0	
0	17.5	0	
0	18.75	0	
0	20	0	
0	21.25	0	
0	22.5	0	
0	23.75	0	
0	25	0	
0	26.25	0	
0	27.5	0	
0	28.75	0	
0	30	0	
0	31.25	0	
0	32.5	0	
0	33.75	0	
0	35	0	
0	36.25	0	
0	37.5	0	
0	38.75	0	
0	40	0	
0	41.25	0	
0	42.5	0	
0	43.75	0	
0	45	0	
0	46.25	0	
0	47.5	0	
0	48.75	0	
0	50	0	
1.25	0	0	
1.25	1.25	0	
1.25	2.5	0	
1.25	3.75	0	
1.25	5	0	
1.25	6.25	0	
1.25	7.5	0	
1.25	8.75	0	
1.25	10	0	
1.25	11.25	0	
1.25	12.5	0	
1.25	13.75	0	
1.25	15	0	
1.25	16.25	0	
1.25	17.5	0	
1.25	18.75	0	
1.25	20	0	
1.25	21.25	0	
1.25	22.5	0	
1.25	23.75	0	
1.25	25	0	
1.25	26.25	0	
1.25	27.5	0	
1.25	28.75	0	
1.25	30	0	
1.25	31.25	0	
1.25	32.5	0	
1.25	33.75	0	
1.25	35	0	
1.25	36.25	0	
1.25	37.5	0	
1.25	38.75	0	
1.25	40	0	
1.25	41.25	0	
1.25	42.5	0	
1.25	43.75	0	
1.25	45	0	
1.25	46.25	0	
1.25	47.5	0	
1.25	48.75	0	
1.25	50	0	
2.5	0	0	
2.5	1.25	0	
2.5	2.5	0	
2.5	3.75	0	
2.5	5	0	
2.5	6.25	0	
2.5	7.5	0	
2.5	8.75	0	
2.5	10	0	
2.5	11.25	0	
2.5	12.5	0	
2.5	13.75	0	
2.5	15	0	
2.5	16.25	0	
2.5	17.5	0	
2.5	18.75	0	
2.5	20	0	
2.5	21.25	0	
2.5	22.5	0	
2.5	23.75	0	
2.5	25	0	
2.5	26.25	0	
2.5	27.5	0	
2.5	28.75	0	
2.5	30	0	
2.5	31.25	0	
2.5	32.5	0	
2.5	33.75	0	
2.5	35	0	
2.5	36.25	0	
2.5	37.5	0	
2.5	38.75	0	
2.5	40	0	
2.5	41.25	0	
2.5	42.5	0	
2.5	43.75	0	
2.5	45	0	
2.5	46.25	0	
2.5	47.5	0	
2.5	48.75	0	
2.5	50	0	
3.75	0	0	
3.75	1.25	0	
3.75	2.5	0	
3.75	3.75	0	
3.75	5	0	
3.75	6.25	0	
3.75	7.5	0	
3.75	8.75	0	
3.75	10	0	
3.75	11.25	0	
3.75	12.5	0	
3.75	13.75	0	
3.75	15	0	
3.75	16.25	0	
3.75	17.5	0	
3.75	18.75	0	
3.75	20	0	
3.75	21.25	0	
3.75	22.5	0	
3.75	23.75	0	
3.75	25	0	
3.75	26.25	0	
3.75	27.5	0	
3.75	28.75	0	
3.75	30	0	
3.75	31.25	0	
3.75	32.5	0	
3.75	33.75	0	
3.75	35	0	
3.75	36.25	0	
3.75	37.5	0	
3.75	38.75	0	
3.75	40	0	
3.75	41.25	0	
3.75	42.5	0	
3.75	43.75	0	
3.75	45	0	
3.75	46.25	0	
3.75	47.5	0	
3.75	48.75	0	
3.75	50	0	
5	0	0	
5	1.25	0	
5	2.5	0	
5	3.75	0	
5	5	0	
5	6.25	0	
5	7.5	0	
5	8.75	0	
5	10	0	
5	11.25	0	
5	12.5	0	
5	13.75	0	
5	15	0	
5	16.25	0	
5	17.5	0	
5	18.75	0	
5	20	0	
5	21.25	0	
5	22.5	0	
5	23.75	0	
5	25	0	
5	26.25	0	
5	27.5	0	
5	28.75	0	
5	30	0	
5	31.25	0	
5	32.5	0	
5	33.75	0	
5	35	0	
5	36.25	0	
5	37.5	0	
5	38.75	0	
5	40	0	
5	41.25	0	
5	42.5	0	
5	43.75	0	
5	45	0	
5	46.25	0	
5	47.5	0	
5	48.75	0	
5	50	0	
6.25	0	0	
6.25	1.25	0	
6.25	2.5	0	
6.25	3.75	0	
6.25	5	0	
6.25	6.25	0	
6.25	7.5	0	
6.25	8.75	0	
6.25	10	0	
6.25	11.25	0	
6.25	12.5	0	
6.25	13.75	0	
6.25	15	0	
6.25	16.25	0	
6.25	17.5	0	
6.25	18.75	0	
6.25	20	0	
6.25	21.25	0	
6.25	22.5	0	
6.25	23.75	0	
6.25	25	0	
6.25	26.25	0	
6.25	27.5	0	
6.25	28.75	0	
6.25	30	0	
6.25	31.25	0	
6.25	32.5	0	
6.25	33.75	0	
6.25	35	0	
6.25	36.25	0	
6.25	37.5	0	
6.25	38.75	0	
6.25	40	0	
6.25	41.25	0	
6.25	42.5	0	
6.25	43.75	0	
6.25	45	0	
6.25	46.25	0	
6.25	47.5	0	
6.25	48.75	0	
6.25	50	0	
7.5	0	0	
7.5	1.25	0	
7.5	2.5	0	
7.5	3.75	0	
7.5	5	0	
7.5	6.25	0	
7.5	7.5	0	
7.5	8.75	0	
7.5	10	0	
7.5	11.25	0	
7.5	12.5	0	
7.5	13.75	0	
7.5	15	0	
7.5	16.25	0	
7.5	17.5	0	
7.5	18.75	0	
7.5	20	0	
7.5	21.25	0	
7.5	22.5	0	
7.5	23.75	0	
7.5	25	0	
7.5	26.25	0	
7.5	27.5	0	
7.5	28.75	0	
7.5	30	0	
7.5	31.25	0	
7.5	32.5	0	
7.5	33.75	0	
7.5	35	0	
7.5	36.25	0	
7.5	37.5	0	
7.5	38.75	0	
7.5	40	0	
7.5	41.25	0	
7.5	42.5	0	
7.5	43.75	0	
7.5	45	0	
7.5	46.25	0	
7.5	47.5	0	
7.5	48.75	0	
7.5	50	0	
8.75	0	0	
8.75	1.25	0	
8.75	2.5	0	
8.75	3.75	0	
8.75	5	0	
8.75	6.25	0	
8.75	7.5	0	
8.75	8.75	0	
8.75	10	0	
8.75	11.25	0	
8.75	12.5	0	
8.75	13.75	0	
8.75	15	0	
8.75	16.25	0	
8.75	17.5	0	
8.75	18.75	0	
8.75	20	0	
8.75	21.25	0	
8.75	22.5	0	
8.75	23.75	0	
8.75	25	0	
8.75	26.25	0	
8.75	27.5	0	
8.75	28.75	0	
8.75	30	0	
8.75	31.25	0	
8.75	32.5	0	
8.75	33.75	0	
8.75	35	0	
8.75	36.25	0	
8.75	37.5	0	
8.75	38.75	0	
8.75	40	0	
8.75	41.25	0	
8.75	42.5	0	
8.75	43.75	0	
8.75	45	0	
8.75	46.25	0	
8.75	47.5	0	
8.75	48.75	0	
8.75	50	0	
10	0	0	
10	1.25	0	
10	2.5	0	
10	3.75	0	
10	5	0	
10	6.25	0	
10	7.5	0	
10	8.75	0	
10	10	0	
10	11.25	0	
10	12.5	0	
10	13.75	0	
10	15	0	
10	16.25	0	
10	17.5	0	
10	18.75	0	
10	20	0	
10	21.25	0	
10	22.5	0	
10	23.75	0	
10	25	0	
10	26.25	0	
10	27.5	0	
10	28.75	0	
10	30	0	
10	31.25	0	
10	32.5	0	
10	33.75	0	
10	35	0	
10	36.25	0	
10	37.5	0	
10	38.75	0	
10	40	0	
10	41.25	0	
10	42.5	0	
10	43.75	0	
10	45	0	
10	46.25	0	
10	47.5	0	
10	48.75	0	
10	50	0	
11.25	0	0	
11.25	1.25	0	
11.25	2.5	0	
11.25	3.75	0	
11.25	5	0	
11.25	6.25	0	
11.25	7.5	0	
11.25	8.75	0	
11.25	10	0	
11.25	11.25	0	
11.25	12.5	0	
11.25	13.75	0	
11.25	15	0	
11.25	16.25	0	
11.25	17.5	0	
11.25	18.75	0	
11.25	20	0	
11.25	21.25	0	
11.25	22.5	0	
11.25	23.75	0	
11.25	25	0	
11.25	26.25	0	
11.25	27.5	0	
11.25	28.75	0	
11.25	30	0	
11.25	31.25	0	
11.25	32.5	0	
11.25	33.75	0	
11.25	35	0	
11.25	36.25	0	
11.25	37.5	0	
11.25	38.75	0	
11.25	40	0	
11.25	41.25	0	
11.25	42.5	0	
11.25	43.75	0	
11.25	45	0	
11.25	46.25	0	
11.25	47.5	0	
11.25	48.75	0	
11.25	50	0	
12.5	0	0	
12.5	1.25	0	
12.5	2.5	0	
12.5	3.75	0	
12.5	5	0	
12.5	6.25	0	
12.5	7.5	0	
12.5	8.75	0	
12.5	10	0	
12.5	11.25	0	
12.5	12.5	0	
12.5	13.75	0	
12.5	15	0	
12.5	16.25	0	
12.5	17.5	0	
12.5	18.75	0	
12.5	20	0	
12.5	21.25	0	
12.5	22.5	0	
12.5	23.75	0	
12.5	25	0	
12.5	26.25	0	
12.5	27.5	0	
12.5	28.75	0	
12.5	30	0	
12.5	31.25	0	
12.5	32.5	0	
12.5	33.75	0	
12.5	35	0	
12.5	36.25	0	
12.5	37.5	0	
12.5	38.75	0	
12.5	40	0	
12.5	41.25	0	
12.5	42.5	0	
12.5	43.75	0	
12.5	45	0	
12.5	46.25	0	
12.5	47.5	0	
12.5	48.75	0	
12.5	50	0	
13.75	0	0	
13.75	1.25	0	
13.75	2.5	0	
13.75	3.75	0	
13.75	5	0	
13.75	6.25	0	
13.75	7.5	0	
13.75	8.75	0	
13.75	10	0	
13.75	11.25	0	
13.75	12.5	0	
13.75	13.75	0	
13.75	15	0	
13.75	16.25	0	
13.75	17.5	0	
13.75	18.75	0	
13.75	20	0	
13.75	21.25	0	
13.75	22.5	0	
13.75	23.75	0	
13.75	25	0	
13.75	26.25	0	
13.75	27.5	0	
13.75	28.75	0	
13.75	30	0	
13.75	31.25	0	
13.75	32.5	0	
13.75	33.75	0	
13.75	35	0	
13.75	36.25	0	
13.75	37.5	0	
13.75	38.75	0	
13.75	40	0	
13.75	41.25	0	
13.75	42.5	0	
13.75	43.75	0	
13.75	45	0	
13.75	46.25	0	
13.75	47.5	0	
13.75	48.75	0	
13.75	50	0	
15	0	0	
15	1.25	0	
15	2.5	0	
15	3.75	0	
15	5	0	
15	6.25	0	
15	7.5	0	
15	8.75	0	
15	10	0	
15	11.25	0	
15	12.5	0	
15	13.75	0	
15	15	0	
15	16.25	0	
15	17.5	0	
15	18.75	0	
15	20	0	
15	21.25	0	
15	22.5	0	
15	23.75	0	
15	25	0	
15	26.25	0	
15	27.5	0	
15	28.75	0	
15	30	0	
15	31.25	0	
15	32.5	0	
15	33.75	0	
15	35	0	
15	36.25	0	
15	37.5	0	
15	38.75	0	
15	40	0	
15	41.25	0	
15	42.5	0	
15	43.75	0	
15	45	0	
15	46.25	0	
15	47.5	0	
15	48.75	0	
15	50	0	
16.25	0	0	
16.25	1.25	0	
16.25	2.5	0	
16.25	3.75	0	
16.25	5	0	
16.25	6.25	0	
16.25	7.5	0	
16.25	8.75	0	
16.25	10	0	
16.25	11.25	0	
16.25	12.5	0	
16.25	13.75	0	
16.25	15	0	
16.25	16.25	0	
16.25	17.5	0	
16.25	18.75	0	
16.25	20	0	
16.25	21.25	0	
16.25	22.5	0	
16.25	23.75	0	
16.25	25	0	
16.25	26.25	0	
16.25	27.5	0	
16.25	28.75	0	
16.25	30	0	
16.25	31.25	0	
16.25	32.5	0	
16.25	33.75	0	
16.25	35	0	
16.25	36.25	0	
16.25	37.5	0	
16.25	38.75	0	
16.25	40	0	
16.25	41.25	0	
16.25	42.5	0	
16.25	43.75	0	
16.25	45	0	
16.25	46.25	0	
16.25	47.5	0	
16.25	48.75	0	
16.25	50	0	
17.5	0	0	
17.5	1.25	0	
17.5	2.5	0	
17.5	3.75	0	
17.5	5	0	
17.5	6.25	0	
17.5	7.5	0	
17.5	8.75	0	
17.5	10	0	
17.5	11.25	0	
17.5	12.5	0	
17.5	13.75	0	
17.5	15	0	
17.5	16.25	0	
17.5	17.5	0	
17.5	18.75	0	
17.5	20	0	
17.5	21.25	0	
17.5	22.5	0	
17.5	23.75	0	
17.5	25	0	
17.5	26.25	0	
17.5	27.5	0	
17.5	28.75	0	
17.5	30	0	
17.5	31.25	0	
17.5	32.5	0	
17.5	33.75	0	
17.5	35	0	
17.5	36.25	0	
17.5	37.5	0	
17.5	38.75	0	
17.5	40	0	
17.5	41.25	0	
17.5	42.5	0	
17.5	43.75	0	
17.5	45	0	
17.5	46.25	0	
17.5	47.5	0	
17.5	48.75	0	
17.5	50	0	
18.75	0	0	
18.75	1.25	0	
18.75	2.5	0	
18.75	3.75	0	
18.75	5	0	
18.75	6.25	0	
18.75	7.5	0	
18.75	8.75	0	
18.75	10	0	
18.75	11.25	0	
18.75	12.5	0	
18.75	13.75	0	
18.75	15	0	
18.75	16.25	0	
18.75	17.5	0	
18.75	18.75	0	
18.75	20	0	
18.75	21.25	0	
18.75	22.5	0	
18.75	23.75	0	
18.75	25	0	
18.75	26.25	0	
18.75	27.5	0	
18.75	28.75	0	
18.75	30	0	
18.75	31.25	0	
18.75	32.5	0	
18.75	33.75	0	
18.75	35	0	
18.75	36.25	0	
18.75	37.5	0	
18.75	38.75	0	
18.75	40	0	
18.75	41.25	0	
18.75	42.5	0	
18.75	43.75	0	
18.75	45	0	
18.75	46.25	0	
18.75	47.5	0	
18.75	48.75	0	
18.75	50	0	
20	0	0	
20	1.25	0	
20	2.5	0	
20	3.75	0	
20	5	0	
20	6.25	0	
20	7.5	0	
20	8.75	0	
20	10	0	
20	11.25	0	
20	12.5	0	
20	13.75	0	
20	15	0	
20	16.25	0	
20	17.5	0	
20	18.75	0	
20	20	0	
20	21.25	0	
20	22.5	0	
20	23.75	0	
20	25	0	
20	26.25	0	
20	27.5	0	
20	28.75	0	
20	30	0	
20	31.25	0	
20	32.5	0	
20	33.75	0	
20	35	0	
20	36.25	0	
20	37.5	0	
20	38.75	0	
20	40	0	
20	41.25	0	
20	42.5	0	
20	43.75	0	
20	45	0	
20	46.25	0	
20	47.5	0	
20	48.75	0	
20	50	0	
21.25	0	0	
21.25	1.25	0	
21.25	2.5	0	
21.25	3.75	0	
21.25	5	0	
21.25	6.25	0	
21.25	7.5	0	
21.25	8.75	0	
21.25	10	0	
21.25	11.25	0	
21.25	12.5	0	
21.25	13.75	0	
21.25	15	0	
21.25	16.25	0	
21.25	17.5	0	
21.25	18.75	0	
21.25	20	0	
21.25	21.25	0	
21.25	22.5	0	
21.25	23.75	0	
21.25	25	0	
21.25	26.25	0	
21.25	27.5	0	
21.25	28.75	0	
21.25	30	0	
21.25	31.25	0	
21.25	32.5	0	
21.25	33.75	0	
21.25	35	0	
21.25	36.25	0	
21.25	37.5	0	
21.25	38.75	0	
21.25	40	0	
21.25	41.25	0	
21.25	42.5	0	
21.25	43.75	0	
21.25	45	0	
21.25	46.25	0	
21.25	47.5	0	
21.25	48.75	0	
21.25	50	0	
22.5	0	0	
22.5	1.25	0	
22.5	2.5	0	
22.5	3.75	0	
22.5	5	0	
22.5	6.25	0	
22.5	7.5	0	
22.5	8.75	0	
22.5	10	0	
22.5	11.25	0	
22.5	12.5	0	
22.5	13.75	0	
22.5	15	0	
22.5	16.25	0	
22.5	17.5	0	
22.5	18.75	0	
22.5	20	0	
22.5	21.25	0	
22.5	22.5	0	
22.5	23.75	0	
22.5	25	0	
22.5	26.25	0	
22.5	27.5	0	
22.5	28.75	0	
22.5	30	0	
22.5	31.25	0	
22.5	32.5	0	
22.5	33.75	0	
22.5	35	0	
22.5	36.25	0	
22.5	37.5	0	
22.5	38.75	0	
22.5	40	0	
22.5	41.25	0	
22.5	42.5	0	
22.5	43.75	0	
22.5	45	0	
22.5	46.25	0	
22.5	47.5	0	
22.5	48.75	0	
22.5	50	0	
23.75	0	0	
23.75	1.25	0	
23.75	2.5	0	
23.75	3.75	0	
23.75	5	0	
23.75	6.25	0	
23.75	7.5	0	
23.75	8.75	0	
23.75	10	0	
23.75	11.25	0	
23.75	12.5	0	
23.75	13.75	0	
23.75	15	0	
23.75	16.25	0	
23.75	17.5	0	
23.75	18.75	0	
23.75	20	0	
23.75	21.25	0	
23.75	22.5	0	
23.75	23.75	0	
23.75	25	0	
23.75	26.25	0	
23.75	27.5	0	
23.75	28.75	0	
23.75	30	0	
[...]
POINT_DATA	14721
VECTORS u float
1.07642e-016	-0.0013885	0	
1.2104e-016	-0.00139117	0	
1.34437e-016	-0.00139416	0	
-8.80187e-017	-0.00142108	0	
-8.27489e-017	-0.00144797	0	
-7.80187e-017	-0.00147481	0	
-7.42659e-017	-0.00150157	0	
-7.11233e-017	-0.00152822	0	
-6.84781e-017	-0.00155475	0	
-6.6578e-017	-0.00158114	0	
-6.52693e-017	-0.00160737	0	
-6.4474e-017	-0.00163342	0	
-6.41089e-017	-0.0016593	0	
-6.42129e-017	-0.00168498	0	
-6.46757e-017	-0.00171047	0	
-6.53579e-017	-0.00173577	0	
-6.63443e-017	-0.00176089	0	
-6.74554e-017	-0.00178585	0	
-6.88376e-017	-0.00181065	0	
-7.02632e-017	-0.00183532	0	
-7.17699e-017	-0.00185989	0	
-7.35117e-017	-0.00188438	0	
-7.54652e-017	-0.00190883	0	
-7.74671e-017	-0.00193328	0	
-7.97796e-017	-0.00195776	0	
-8.29276e-017	-0.00198232	0	
-8.67067e-017	-0.00200698	0	
-9.22352e-017	-0.00203175	0	
-1.00076e-016	-0.0020566	0	
-1.1089e-016	-0.00208144	0	
-1.25159e-016	-0.00210613	0	
-1.40104e-016	-0.00213048	0	
5.69988e-017	-0.00215441	0	
6.37758e-017	-0.00215583	0	
6.21338e-017	-0.00215889	0	
2.63331e-017	-0.00216144	0	
-1.7452e-017	-0.00216173	0	
-4.23625e-017	-0.00216202	0	
-6.00997e-017	-0.00216267	0	
-8.20952e-017	-0.00216428	0	
-4.44357e-016	-0.00217345	0	
5.87728e-006	-0.00138886	0	
6.60878e-006	-0.00139154	0	
7.34027e-006	-0.00139453	0	
7.6083e-006	-0.00142143	0	
7.8286e-006	-0.00144832	0	
8.0041e-006	-0.00147514	0	
8.13668e-006	-0.00150189	0	
8.22888e-006	-0.00152853	0	
8.28362e-006	-0.00155505	0	
8.30341e-006	-0.00158142	0	
8.29171e-006	-0.00160764	0	
8.25091e-006	-0.00163367	0	
8.18589e-006	-0.00165953	0	
8.09914e-006	-0.00168519	0	
7.99776e-006	-0.00171066	0	
7.88454e-006	-0.00173594	0	
7.76585e-006	-0.00176104	0	
7.64443e-006	-0.00178596	0	
7.52414e-006	-0.00181073	0	
7.40791e-006	-0.00183537	0	
7.29674e-006	-0.00185989	0	
7.19395e-006	-0.00188434	0	
7.09875e-006	-0.00190873	0	
7.01261e-006	-0.00193311	0	
6.92826e-006	-0.00195753	0	
6.8345e-006	-0.001982	0	
6.70866e-006	-0.00200658	0	
6.51218e-006	-0.00203128	0	
6.19226e-006	-0.00205608	0	
5.68826e-006	-0.00208091	0	
4.97859e-006	-0.00210565	0	
4.15038e-006	-0.00213018	0	
3.39736e-006	-0.00215455	0	
3.72969e-006	-0.00215597	0	
3.6575e-006	-0.00215762	0	
1.18192e-006	-0.00215928	0	
-6.52643e-007	-0.00216006	0	
-1.708e-006	-0.00216039	0	
-2.63458e-006	-0.00216061	0	
-4.21397e-006	-0.00215982	0	
-8.73706e-006	-0.00215796	0	
1.17546e-005	-0.00138996	0	
1.32176e-005	-0.00139264	0	
1.46805e-005	-0.00139562	0	
1.52145e-005	-0.0014225	0	
1.56545e-005	-0.00144935	0	
1.60038e-005	-0.00147615	0	
1.62675e-005	-0.00150286	0	
1.64502e-005	-0.00152946	0	
1.65573e-005	-0.00155594	0	
1.65947e-005	-0.00158227	0	
1.65682e-005	-0.00160844	0	
1.64851e-005	-0.00163443	0	
1.63505e-005	-0.00166023	0	
1.61757e-005	-0.00168583	0	
1.59671e-005	-0.00171124	0	
1.57376e-005	-0.00173645	0	
1.54939e-005	-0.00176148	0	
1.52453e-005	-0.00178631	0	
1.4998e-005	-0.00181099	0	
1.47562e-005	-0.00183551	0	
1.45263e-005	-0.00185991	0	
1.43089e-005	-0.00188421	0	
1.41107e-005	-0.00190844	0	
1.39266e-005	-0.00193263	0	
1.37513e-005	-0.00195683	0	
1.35621e-005	-0.00198107	0	
1.33207e-005	-0.0020054	0	
1.29614e-005	-0.00202986	0	
1.2379e-005	-0.00205447	0	
1.14485e-005	-0.00207922	0	
1.00988e-005	-0.00210402	0	
8.49716e-006	-0.00212875	0	
7.30936e-006	-0.0021534	0	
5.66491e-006	-0.00215461	0	
4.09065e-006	-0.00215517	0	
1.4163e-006	-0.00215577	0	
-1.30318e-006	-0.00215633	0	
-3.69721e-006	-0.00215639	0	
-6.18203e-006	-0.00215575	0	
-9.47096e-006	-0.00215417	0	
-1.45994e-005	-0.00215176	0	
1.76319e-005	-0.00139179	0	
1.98263e-005	-0.00139446	0	
2.20208e-005	-0.00139745	0	
2.28191e-005	-0.00142428	0	
2.34748e-005	-0.00145108	0	
2.39954e-005	-0.00147782	0	
2.43868e-005	-0.00150447	0	
2.46561e-005	-0.00153101	0	
2.48117e-005	-0.00155742	0	
2.48621e-005	-0.00158369	0	
2.48165e-005	-0.00160978	0	
2.46836e-005	-0.00163569	0	
2.44762e-005	-0.0016614	0	
2.42036e-005	-0.00168692	0	
2.38832e-005	-0.00171222	0	
2.35265e-005	-0.00173732	0	
2.31488e-005	-0.00176222	0	
2.27614e-005	-0.00178692	0	
2.23724e-005	-0.00181144	0	
2.19915e-005	-0.00183578	0	
2.16222e-005	-0.00185998	0	
2.12745e-005	-0.00188405	0	
2.09484e-005	-0.00190801	0	
2.06482e-005	-0.00193189	0	
2.03607e-005	-0.00195573	0	
2.00656e-005	-0.00197958	0	
1.97171e-005	-0.00200347	0	
1.9236e-005	-0.00202747	0	
1.84903e-005	-0.00205166	0	
1.72899e-005	-0.00207611	0	
1.53582e-005	-0.00210087	0	
1.27229e-005	-0.00212563	0	
1.05042e-005	-0.00214977	0	
7.15419e-006	-0.00215064	0	
4.47378e-006	-0.00215116	0	
1.24586e-006	-0.00215145	0	
-2.32585e-006	-0.00215149	0	
-6.00185e-006	-0.00215108	0	
-9.99559e-006	-0.00215	0	
-1.47204e-005	-0.00214821	0	
-2.03426e-005	-0.0021459	0	
2.35091e-005	-0.00139435	0	
2.64351e-005	-0.00139702	0	
2.93611e-005	-0.00140001	0	
3.04194e-005	-0.00142677	0	
3.12882e-005	-0.00145349	0	
3.19756e-005	-0.00148016	0	
3.24892e-005	-0.00150673	0	
3.28403e-005	-0.00153319	0	
3.30384e-005	-0.00155951	0	
3.30953e-005	-0.00158568	0	
3.30221e-005	-0.00161167	0	
3.2833e-005	-0.00163746	0	
3.25407e-005	-0.00166306	0	
3.2164e-005	-0.00168844	0	
3.17181e-005	-0.00171361	0	
3.12235e-005	-0.00173856	0	
3.06974e-005	-0.00176328	0	
3.01534e-005	-0.0017878	0	
2.96059e-005	-0.0018121	0	
2.90613e-005	-0.00183621	0	
2.85317e-005	-0.00186014	0	
2.80218e-005	-0.0018839	0	
2.75409e-005	-0.0019075	0	
2.70867e-005	-0.00193098	0	
2.66543e-005	-0.00195435	0	
2.62205e-005	-0.00197764	0	
2.57446e-005	-0.0020009	0	
2.51552e-005	-0.00202418	0	
2.43245e-005	-0.00204759	0	
2.30417e-005	-0.00207128	0	
2.082e-005	-0.00209563	0	
1.72733e-005	-0.00212032	0	
1.21977e-005	-0.0021449	0	
8.48648e-006	-0.00214536	0	
5.01293e-006	-0.00214582	0	
9.12589e-007	-0.00214591	0	
-3.6769e-006	-0.00214557	0	
-8.5144e-006	-0.00214478	0	
-1.37098e-005	-0.0021435	0	
-1.95032e-005	-0.00214173	0	
-2.59886e-005	-0.00213955	0	
2.93864e-005	-0.00139764	0	
3.30439e-005	-0.00140032	0	
3.67014e-005	-0.00140331	0	
3.80157e-005	-0.00142997	0	
3.90931e-005	-0.0014566	0	
3.99411e-005	-0.00148317	0	
4.05726e-005	-0.00150964	0	
4.09971e-005	-0.00153599	0	
4.12299e-005	-0.0015622	0	
4.12837e-005	-0.00158824	0	
4.11739e-005	-0.0016141	0	
4.0916e-005	-0.00163976	0	
4.05301e-005	-0.00166521	0	
4.00339e-005	-0.00169043	0	
3.94506e-005	-0.00171542	0	
3.88026e-005	-0.00174018	0	
3.81088e-005	-0.00176469	0	
3.73908e-005	-0.00178898	0	
3.66583e-005	-0.00181303	0	
3.59272e-005	-0.00183685	0	
3.52049e-005	-0.00186045	0	
3.45023e-005	-0.00188384	0	
3.38244e-005	-0.00190703	0	
3.31742e-005	-0.00193002	0	
3.25437e-005	-0.00195282	0	
3.19136e-005	-0.00197545	0	
3.12469e-005	-0.00199791	0	
3.04842e-005	-0.00202023	0	
2.95317e-005	-0.00204245	0	
2.82238e-005	-0.0020647	0	
2.62118e-005	-0.00208713	0	
2.25639e-005	-0.0021107	0	
1.24715e-005	-0.00214048	0	
9.69607e-006	-0.00213987	0	
5.59221e-006	-0.00213948	0	
4.37926e-007	-0.0021392	0	
-5.24072e-006	-0.00213848	0	
-1.10902e-005	-0.00213743	0	
-1.72832e-005	-0.00213609	0	
-2.40226e-005	-0.00213439	0	
-3.13881e-005	-0.00213232	0	
3.52637e-005	-0.00140166	0	
3.96527e-005	-0.00140434	0	
4.40416e-005	-0.00140733	0	
4.56082e-005	-0.00143389	0	
4.68874e-005	-0.0014604	0	
4.78926e-005	-0.00148685	0	
4.86317e-005	-0.0015132	0	
4.91228e-005	-0.00153942	0	
4.93788e-005	-0.0015655	0	
4.94187e-005	-0.00159139	0	
4.92594e-005	-0.0016171	0	
4.89217e-005	-0.00164259	0	
4.84263e-005	-0.00166785	0	
4.77977e-005	-0.00169288	0	
4.70609e-005	-0.00171767	0	
4.62396e-005	-0.0017422	0	
4.53623e-005	-0.00176648	0	
4.44429e-005	-0.00179049	0	
4.35044e-005	-0.00181425	0	
4.25555e-005	-0.00183775	0	
4.16102e-005	-0.00186099	0	
4.06767e-005	-0.00188397	0	
3.97603e-005	-0.0019067	0	
3.88629e-005	-0.00192916	0	
3.79745e-005	-0.00195135	0	
3.70728e-005	-0.00197325	0	
3.61156e-005	-0.00199485	0	
3.50422e-005	-0.00201609	0	
3.37644e-005	-0.00203691	0	
3.21307e-005	-0.0020572	0	
2.98875e-005	-0.00207687	0	
2.5827e-005	-0.00209482	0	
1.82552e-005	-0.00211255	0	
1.07214e-005	-0.00213306	0	
6.63827e-006	-0.00213196	0	
-2.93424e-007	-0.00213092	0	
-6.95081e-006	-0.00212993	0	
-1.35927e-005	-0.00212892	0	
-2.06365e-005	-0.0021277	0	
-2.82736e-005	-0.00212614	0	
-3.65344e-005	-0.00212418	0	
4.1141e-005	-0.00140642	0	
4.62614e-005	-0.00140909	0	
5.13819e-005	-0.00141208	0	
5.31953e-005	-0.00143851	0	
5.46735e-005	-0.0014649	0	
5.58251e-005	-0.00149121	0	
5.66667e-005	-0.00151742	0	
5.72109e-005	-0.00154349	0	
5.74801e-005	-0.0015694	0	
5.74923e-005	-0.00159512	0	
5.72708e-005	-0.00162065	0	
5.68372e-005	-0.00164594	0	
5.62183e-005	-0.00167101	0	
5.54404e-005	-0.00169582	0	
5.45306e-005	-0.00172037	0	
5.35217e-005	-0.00174465	0	
5.24329e-005	-0.00176865	0	
5.12962e-005	-0.00179238	0	
5.0121e-005	-0.00181582	0	
4.89286e-005	-0.00183897	0	
4.77279e-005	-0.00186182	0	
4.65266e-005	-0.00188438	0	
4.53314e-005	-0.00190662	0	
4.41378e-005	-0.00192855	0	
4.29356e-005	-0.00195012	0	
4.16909e-005	-0.00197132	0	
4.03499e-005	-0.0019921	0	
3.88237e-005	-0.00201236	0	
3.69919e-005	-0.00203196	0	
3.46879e-005	-0.00205064	0	
3.16031e-005	-0.00206811	0	
2.71557e-005	-0.00208417	0	
2.07486e-005	-0.00209806	0	
1.34949e-005	-0.002111	0	
8.36362e-006	-0.00212046	0	
-1.03381e-006	-0.00212031	0	
-8.54688e-006	-0.00211987	0	
-1.57965e-005	-0.00211923	0	
-2.36642e-005	-0.00211837	0	
-3.22564e-005	-0.00211701	0	
-4.14009e-005	-0.00211517	0	
4.70182e-005	-0.0014119	0	
5.28702e-005	-0.00141458	0	
5.87222e-005	-0.00141757	0	
6.07788e-005	-0.00144385	0	
6.24475e-005	-0.00147008	0	
6.37409e-005	-0.00149624	0	
6.46714e-005	-0.00152228	0	
6.52606e-005	-0.00154818	0	
6.55275e-005	-0.0015739	0	
6.54994e-005	-0.00159944	0	
6.51986e-005	-0.00162476	0	
6.46548e-005	-0.00164984	0	
6.38941e-005	-0.00167467	0	
6.29486e-005	-0.00169924	0	
6.18507e-005	-0.00172353	0	
6.06272e-005	-0.00174754	0	
5.93152e-005	-0.00177125	0	
5.79297e-005	-0.00179466	0	
5.65004e-005	-0.00181776	0	
5.50362e-005	-0.00184055	0	
5.35513e-005	-0.00186301	0	
5.20535e-005	-0.00188514	0	
5.0542e-005	-0.00190692	0	
4.90165e-005	-0.00192832	0	
4.74569e-005	-0.00194933	0	
4.58284e-005	-0.0019699	0	
4.40572e-005	-0.00198999	0	
4.20256e-005	-0.0020095	0	
3.95703e-005	-0.00202832	0	
3.64768e-005	-0.00204622	0	
3.25964e-005	-0.00206298	0	
2.8097e-005	-0.00207812	0	
2.23623e-005	-0.00209269	0	
1.5572e-005	-0.00210755	0	
7.15902e-006	-0.0021082	0	
-1.79297e-006	-0.00210874	0	
-9.77194e-006	-0.00210886	0	
-1.74452e-005	-0.00210871	0	
-2.61819e-005	-0.00210841	0	
-3.60604e-005	-0.0021071	0	
-4.6012e-005	-0.00210534	0	
5.28955e-005	-0.00141812	0	
5.9479e-005	-0.0014208	0	
6.60625e-005	-0.00142379	0	
6.83576e-005	-0.0014499	0	
7.02115e-005	-0.00147596	0	
7.16361e-005	-0.00150193	0	
7.26481e-005	-0.00152779	0	
7.32665e-005	-0.0015535	0	
7.35198e-005	-0.00157902	0	
7.34326e-005	-0.00160434	0	
7.30386e-005	-0.00162943	0	
7.23639e-005	-0.00165428	0	
7.14455e-005	-0.00167886	0	
7.03141e-005	-0.00170316	0	
6.90044e-005	-0.00172717	0	
6.75544e-005	-0.00175088	0	
6.59886e-005	-0.00177428	0	
6.43436e-005	-0.00179736	0	
6.26327e-005	-0.00182011	0	
6.08779e-005	-0.00184253	0	
5.90886e-005	-0.00186461	0	
5.72679e-005	-0.00188632	0	
5.54199e-005	-0.00190766	0	
5.35347e-005	-0.0019286	0	
5.16004e-005	-0.00194911	0	
4.95772e-005	-0.00196915	0	
4.73956e-005	-0.0019887	0	
4.49229e-005	-0.00200773	0	
4.19825e-005	-0.00202619	0	
3.82844e-005	-0.00204414	0	
3.40146e-005	-0.00206088	0	
2.96361e-005	-0.00207757	0	
2.36826e-005	-0.00209593	0	
1.49345e-005	-0.00209651	0	
6.13659e-006	-0.00209711	0	
-2.54456e-006	-0.00209746	0	
-1.08301e-005	-0.00209767	0	
-1.86717e-005	-0.00209809	0	
-2.85581e-005	-0.00209786	0	
-3.98114e-005	-0.00209647	0	
-5.03242e-005	-0.00209479	0	
5.87728e-005	-0.00142507	0	
6.60878e-005	-0.00142775	0	
7.34028e-005	-0.00143074	0	
7.59321e-005	-0.00145666	0	
7.79657e-005	-0.00148252	0	
7.95135e-005	-0.0015083	0	
8.05935e-005	-0.00153395	0	
8.12305e-005	-0.00155945	0	
8.14509e-005	-0.00158475	0	
8.12915e-005	-0.00160983	0	
8.07816e-005	-0.00163467	0	
7.99619e-005	-0.00165926	0	
7.88631e-005	-0.00168357	0	
7.75266e-005	-0.00170758	0	
7.59892e-005	-0.00173129	0	
7.42857e-005	-0.00175469	0	
7.24573e-005	-0.00177776	0	
7.05261e-005	-0.0018005	0	
6.85228e-005	-0.0018229	0	
6.64609e-005	-0.00184495	0	
6.43509e-005	-0.00186665	0	
6.21991e-005	-0.00188798	0	
5.99992e-005	-0.00190892	0	
5.77479e-005	-0.00192945	0	
5.54313e-005	-0.00194954	0	
5.30281e-005	-0.00196916	0	
5.04835e-005	-0.00198829	0	
4.77128e-005	-0.00200694	0	
4.45037e-005	-0.00202522	0	
4.07229e-005	-0.00204324	0	
3.63366e-005	-0.00206186	0	
3.24802e-005	-0.00208474	0	
2.31228e-005	-0.00208505	0	
1.41548e-005	-0.00208542	0	
5.42901e-006	-0.00208568	0	
-3.35932e-006	-0.00208607	0	
-1.23288e-005	-0.00208673	0	
-1.95302e-005	-0.00208764	0	
-3.2925e-005	-0.00208729	0	
-4.36347e-005	-0.00208565	0	
-5.42929e-005	-0.00208399	0	
6.465e-005	-0.00143275	0	
7.26966e-005	-0.00143543	0	
8.07431e-005	-0.00143842	0	
8.35042e-005	-0.00146413	0	
8.57102e-005	-0.00148978	0	
8.73725e-005	-0.00151534	0	
8.85097e-005	-0.00154076	0	
8.91478e-005	-0.00156602	0	
8.93222e-005	-0.00159108	0	
8.90677e-005	-0.0016159	0	
8.84279e-005	-0.00164048	0	
8.74378e-005	-0.00166478	0	
8.61424e-005	-0.00168879	0	
8.45796e-005	-0.0017125	0	
8.27922e-005	-0.00173589	0	
8.08238e-005	-0.00175896	0	
7.87072e-005	-0.00178169	0	
7.64823e-005	-0.00180407	0	
7.41706e-005	-0.00182612	0	
7.17929e-005	-0.00184781	0	
6.93616e-005	-0.00186914	0	
6.68751e-005	-0.00189012	0	
6.433e-005	-0.00191072	0	
6.17148e-005	-0.00193092	0	
5.90198e-005	-0.00195068	0	
5.62443e-005	-0.00196998	0	
5.33936e-005	-0.00198877	0	
5.0357e-005	-0.00200711	0	
4.69946e-005	-0.00202505	0	
4.34187e-005	-0.00204224	0	
3.89645e-005	-0.00205889	0	
3.24514e-005	-0.00207392	0	
2.23071e-005	-0.00207378	0	
1.33409e-005	-0.0020738	0	
4.6524e-006	-0.00207397	0	
-4.28519e-006	-0.002074	0	
-1.44029e-005	-0.00207387	0	
-2.48594e-005	-0.0020757	0	
-3.69023e-005	-0.00207667	0	
-4.75182e-005	-0.00207498	0	
-5.81585e-005	-0.00207331	0	
7.05273e-005	-0.00144116	0	
7.93053e-005	-0.00144384	0	
8.80834e-005	-0.00144683	0	
9.1073e-005	-0.0014723	0	
9.34469e-005	-0.00149772	0	
9.52144e-005	-0.00152304	0	
9.63949e-005	-0.00154822	0	
9.70201e-005	-0.00157322	0	
9.71276e-005	-0.00159801	0	
9.67619e-005	-0.00162255	0	
9.59668e-005	-0.00164684	0	
9.47898e-005	-0.00167084	0	
9.32732e-005	-0.00169453	0	
9.14647e-005	-0.00171791	0	
8.94112e-005	-0.00174096	0	
8.71546e-005	-0.00176368	0	
8.47415e-005	-0.00178606	0	
8.22053e-005	-0.00180809	0	
7.95787e-005	-0.00182977	0	
7.68854e-005	-0.00185111	0	
7.41344e-005	-0.0018721	0	
7.13314e-005	-0.00189274	0	
6.84615e-005	-0.00191304	0	
6.5504e-005	-0.00193298	0	
6.24457e-005	-0.00195254	0	
5.93149e-005	-0.00197163	0	
5.61221e-005	-0.00199025	0	
5.2864e-005	-0.00200845	0	
4.94702e-005	-0.00202572	0	
4.52105e-005	-0.0020428	0	
3.8247e-005	-0.00206034	0	
3.0485e-005	-0.00206114	0	
2.13628e-005	-0.0020617	0	
1.25549e-005	-0.00206206	0	
3.84102e-006	-0.00206233	0	
-5.11477e-006	-0.00206271	0	
-1.44352e-005	-0.00206304	0	
-2.85071e-005	-0.00206491	0	
-4.08838e-005	-0.00206609	0	
-5.14564e-005	-0.00206439	0	
-6.20278e-005	-0.00206272	0	
7.64046e-005	-0.00145031	0	
8.59141e-005	-0.00145298	0	
9.54237e-005	-0.00145597	0	
9.86408e-005	-0.00148119	0	
0.000101178	-0.00150635	0	
0.00010304	-0.00153141	0	
0.00010425	-0.00155631	0	
0.000104845	-0.00158103	0	
0.000104867	-0.00160553	0	
0.000104367	-0.00162977	0	
0.000103397	-0.00165374	0	
0.000102007	-0.00167741	0	
0.00010025	-0.00170077	0	
9.81755e-005	-0.0017238	0	
9.58347e-005	-0.0017465	0	
9.32784e-005	-0.00176885	0	
9.05506e-005	-0.00179087	0	
8.76951e-005	-0.00181253	0	
8.47494e-005	-0.00183385	0	
8.17373e-005	-0.00185483	0	
7.86842e-005	-0.00187547	0	
7.55867e-005	-0.0018958	0	
7.24345e-005	-0.00191582	0	
6.91904e-005	-0.00193557	0	
6.58177e-005	-0.00195502	0	
6.23005e-005	-0.00197414	0	
5.87792e-005	-0.00199289	0	
5.56341e-005	-0.00201076	0	
5.20009e-005	-0.00202897	0	
4.59693e-005	-0.00204872	0	
3.74999e-005	-0.00204938	0	
2.90388e-005	-0.00204997	0	
2.04871e-005	-0.00205019	0	
1.1835e-005	-0.00205054	0	
3.05925e-006	-0.00205117	0	
-5.69612e-006	-0.00205178	0	
-1.93443e-005	-0.00205313	0	
-3.23e-005	-0.00205436	0	
-4.48646e-005	-0.00205555	0	
-5.53855e-005	-0.00205385	0	
-6.59067e-005	-0.00205218	0	
8.22818e-005	-0.00146018	0	
9.25229e-005	-0.00146286	0	
0.000102764	-0.00146585	0	
0.000106211	-0.00149078	0	
0.000108903	-0.00151566	0	
0.000110851	-0.00154043	0	
0.000112076	-0.00156504	0	
0.00011262	-0.00158945	0	
0.000112535	-0.00161363	0	
0.000111877	-0.00163754	0	
0.000110707	-0.00166117	0	
0.000109084	-0.00168448	0	
0.000107063	-0.00170748	0	
0.000104703	-0.00173014	0	
0.000102059	-0.00175246	0	
9.91853e-005	-0.00177445	0	
9.61326e-005	-0.00179609	0	
9.29491e-005	-0.00181738	0	
8.96745e-005	-0.00183833	0	
8.63516e-005	-0.00185894	0	
8.30006e-005	-0.00187923	0	
7.9643e-005	-0.00189923	0	
7.6261e-005	-0.00191897	0	
7.28145e-005	-0.00193852	0	
6.92551e-005	-0.00195792	0	
6.54395e-005	-0.00197733	0	
6.17385e-005	-0.00199605	0	
5.86504e-005	-0.00201535	0	
5.39116e-005	-0.00203704	0	
4.53122e-005	-0.00203767	0	
3.66452e-005	-0.00203832	0	
2.80587e-005	-0.00203867	0	
1.95151e-005	-0.00203889	0	
1.10053e-005	-0.00203946	0	
2.42796e-006	-0.00204009	0	
-1.06843e-005	-0.00204151	0	
-2.3509e-005	-0.00204266	0	
-3.61533e-005	-0.00204381	0	
-4.88353e-005	-0.00204506	0	
-5.93154e-005	-0.00204336	0	
-6.97954e-005	-0.00204169	0	
8.81591e-005	-0.00147079	0	
9.91317e-005	-0.00147347	0	
0.000110104	-0.00147646	0	
0.000113782	-0.00150108	0	
0.000116628	-0.00152565	0	
0.000118647	-0.0015501	0	
0.00011987	-0.00157439	0	
0.000120344	-0.00159847	0	
0.000120126	-0.0016223	0	
0.000119286	-0.00164585	0	
0.00011789	-0.0016691	0	
0.000116008	-0.00169203	0	
0.000113702	-0.00171464	0	
0.000111038	-0.00173691	0	
0.000108074	-0.00175884	0	
0.000104871	-0.00178043	0	
0.000101482	-0.00180168	0	
9.79596e-005	-0.0018226	0	
9.43544e-005	-0.00184317	0	
9.07088e-005	-0.00186342	0	
8.70724e-005	-0.00188335	0	
8.34659e-005	-0.00190299	0	
7.98954e-005	-0.00192239	0	
7.63471e-005	-0.00194161	0	
7.27173e-005	-0.00196081	0	
6.89975e-005	-0.00198012	0	
6.52041e-005	-0.0020005	0	
6.24473e-005	-0.00202587	0	
5.33099e-005	-0.00202621	0	
4.45069e-005	-0.0020266	0	
3.59123e-005	-0.00202687	0	
2.71825e-005	-0.00202721	0	
1.8101e-005	-0.00202776	0	
1.02879e-005	-0.00202853	0	
-2.41367e-006	-0.00202974	0	
-1.49111e-005	-0.00203094	0	
-2.74316e-005	-0.0020321	0	
-4.01271e-005	-0.00203335	0	
-5.27976e-005	-0.0020346	0	
-6.32451e-005	-0.00203291	0	
-7.36926e-005	-0.00203123	0	
9.40364e-005	-0.00148213	0	
0.00010574	-0.0014848	0	
0.000117445	-0.00148779	0	
0.000121359	-0.00151208	0	
0.000124351	-0.0015363	0	
0.000126432	-0.00156041	0	
0.000127633	-0.00158434	0	
0.00012801	-0.00160806	0	
0.000127634	-0.00163151	0	
0.000126581	-0.00165466	0	
0.000124933	-0.00167751	0	
0.000122766	-0.00170002	0	
0.000120153	-0.00172221	0	
0.000117165	-0.00174405	0	
0.000113869	-0.00176556	0	
0.000110326	-0.00178675	0	
0.000106594	-0.0018076	0	
0.000102727	-0.00182814	0	
9.8779e-005	-0.00184835	0	
9.48078e-005	-0.00186823	0	
9.08683e-005	-0.0018878	0	
8.70133e-005	-0.00190707	0	
8.32706e-005	-0.00192606	0	
7.95677e-005	-0.00194483	0	
7.58571e-005	-0.00196343	0	
7.23828e-005	-0.00198149	0	
6.84049e-005	-0.00199916	0	
6.24085e-005	-0.0020152	0	
5.24535e-005	-0.00201506	0	
4.36807e-005	-0.00201507	0	
3.51246e-005	-0.00201524	0	
2.62502e-005	-0.00201526	0	
1.61959e-005	-0.00201513	0	
5.65688e-006	-0.0020175	0	
-6.47832e-006	-0.00201905	0	
-1.88149e-005	-0.00202033	0	
-3.14171e-005	-0.00202162	0	
-4.40757e-005	-0.00202291	0	
-5.67509e-005	-0.00202417	0	
-6.71748e-005	-0.00202248	0	
-7.75987e-005	-0.0020208	0	
9.99136e-005	-0.0014942	0	
0.000112349	-0.00149687	0	
0.000124785	-0.00149986	0	
0.000128942	-0.00152377	0	
0.00013208	-0.00154762	0	
0.000134205	-0.00157135	0	
0.00013536	-0.0015949	0	
0.000135614	-0.00161821	0	
0.000135044	-0.00164124	0	
0.000133749	-0.00166396	0	
0.000131817	-0.00168635	0	
0.000129339	-0.00170841	0	
0.000126397	-0.00173014	0	
0.000123069	-0.00175153	0	
0.000119427	-0.00177259	0	
0.000115539	-0.00179334	0	
0.000111462	-0.00181379	0	
0.000107252	-0.00183394	0	
0.00010296	-0.00185379	0	