# vtk DataFile Version 4.1
vtk output
ASCII
DATASET UNSTRUCTURED_GRID

POINTS	14721	float
0	0	0	
0	1.25	0	
0	2.5	0	
0	3.75	0	
0	5	0	
0	6.25	0	
0	7.5	0	
0	8.75	0	
0	10	0	
0	11.25	0	
0	12.5	0	
0	13.75	0	
0	15	0	
0	16.25	0	
0	17.5	0	
0	18.75	0	
0	20	0	
0	21.25	0	
0	22.5	0	
0	23.75	0	
0	25	0	
0	26.25	0	
0	27.5	0	
0	28.75	0	
0	30	0	
0	31.25	0	
0	32.5	0	
0	33.75	0	
0	35	0	
0	36.25	0	
0	37.5	0	
0	38.75	0	
0	40	0	
0	41.25	0	
0	42.5	0	
0	43.75	0	
0	45	0	
0	46.25	0	
0	47.5	0	
0	48.75	0	
0	50	0	
1.25	0	0	
1.25	1.25	0	
1.25	2.5	0	
1.25	3.75	0	
1.25	5	0	
1.25	6.25	0	
1.25	7.5	0	
1.25	8.75	0	
1.25	10	0	
1.25	11.25	0	
1.25	12.5	0	
1.25	13.75	0	
1.25	15	0	
1.25	16.25	0	
1.25	17.5	0	
1.25	18.75	0	
1.25	20	0	
1.25	21.25	0	
1.25	22.5	0	
1.25	23.75	0	
1.25	25	0	
1.25	26.25	0	
1.25	27.5	0	
1.25	28.75	0	
1.25	30	0	
1.25	31.25	0	
1.25	32.5	0	
1.25	33.75	0	
1.25	35	0	
1.25	36.25	0	
1.25	37.5	0	
1.25	38.75	0	
1.25	40	0	
1.25	41.25	0	
1.25	42.5	0	
1.25	43.75	0	
1.25	45	0	
1.25	46.25	0	
1.25	47.5	0	
1.25	48.75	0	
1.25	50	0	
2.5	0	0	
2.5	1.25	0	
2.5	2.5	0	
2.5	3.75	0	
2.5	5	0	
2.5	6.25	0	
2.5	7.5	0	
2.5	8.75	0	
2.5	10	0	
2.5	11.25	0	
2.5	12.5	0	
2.5	13.75	0	
2.5	15	0	
2.5	16.25	0	
2.5	17.5	0	
2.5	18.75	0	
2.5	20	0	
2.5	21.25	0	
2.5	22.5	0	
2.5	23.75	0	
2.5	25	0	
2.5	26.25	0	
2.5	27.5	0	
2.5	28.75	0	
2.5	30	0	
2.5	31.25	0	
2.5	32.5	0	
2.5	33.75	0	
2.5	35	0	
2.5	36.25	0	
2.5	37.5	0	
2.5	38.75	0	
2.5	40	0	
2.5	41.25	0	
2.5	42.5	0	
2.5	43.75	0	
2.5	45	0	
2.5	46.25	0	
2.5	47.5	0	
2.5	48.75	0	
2.5	50	0	
3.75	0	0	
3.75	1.25	0	
3.75	2.5	0	
3.75	3.75	0	
3.75	5	0	
3.75	6.25	0	
3.75	7.5	0	
3.75	8.75	0	
3.75	10	0	
3.75	11.25	0	
3.75	12.5	0	
3.75	13.75	0	
3.75	15	0	
3.75	16.25	0	
3.75	17.5	0	
3.75	18.75	0	
3.75	20	0	
3.75	21.25	0	
3.75	22.5	0	
3.75	23.75	0	
3.75	25	0	
3.75	26.25	0	
3.75	27.5	0	
3.75	28.75	0	
3.75	30	0	
3.75	31.25	0	
3.75	32.5	0	
3.75	33.75	0	
3.75	35	0	
3.75	36.25	0	
3.75	37.5	0	
3.75	38.75	0	
3.75	40	0	
3.75	41.25	0	
3.75	42.5	0	
3.75	43.75	0	
3.75	45	0	
3.75	46.25	0	
3.75	47.5	0	
3.75	48.75	0	
3.75	50	0	
5	0	0	
5	1.25	0	
5	2.5	0	
5	3.75	0	
5	5	0	
5	6.25	0	
5	7.5	0	
5	8.75	0	
5	10	0	
5	11.25	0	
5	12.5	0	
5	13.75	0	
5	15	0	
5	16.25	0	
5	17.5	0	
5	18.75	0	
5	20	0	
5	21.25	0	
5	22.5	0	
5	23.75	0	
5	25	0	
5	26.25	0	
5	27.5	0	
5	28.75	0	
5	30	0	
5	31.25	0	
5	32.5	0	
5	33.75	0	
5	35	0	
5	36.25	0	
5	37.5	0	
5	38.75	0	
5	40	0	
5	41.25	0	
5	42.5	0	
5	43.75	0	
5	45	0	
5	46.25	0	
5	47.5	0	
5	48.75	0	
5	50	0	
6.25	0	0	
6.25	1.25	0	
6.25	2.5	0	
6.25	3.75	0	
6.25	5	0	
6.25	6.25	0	
6.25	7.5	0	
6.25	8.75	0	
6.25	10	0	
6.25	11.25	0	
6.25	12.5	0	
6.25	13.75	0	
6.25	15	0	
6.25	16.25	0	
6.25	17.5	0	
6.25	18.75	0	
6.25	20	0	
6.25	21.25	0	
6.25	22.5	0	
6.25	23.75	0	
6.25	25	0	
6.25	26.25	0	
6.25	27.5	0	
6.25	28.75	0	
6.25	30	0	
6.25	31.25	0	
6.25	32.5	0	
6.25	33.75	0	
6.25	35	0	
6.25	36.25	0	
6.25	37.5	0	
6.25	38.75	0	
6.25	40	0	
6.25	41.25	0	
6.25	42.5	0	
6.25	43.75	0	
6.25	45	0	
6.25	46.25	0	
6.25	47.5	0	
6.25	48.75	0	
6.25	50	0	
7.5	0	0	
7.5	1.25	0	
7.5	2.5	0	
7.5	3.75	0	
7.5	5	0	
7.5	6.25	0	
7.5	7.5	0	
7.5	8.75	0	
7.5	10	0	
7.5	11.25	0	
7.5	12.5	0	
7.5	13.75	0	
7.5	15	0	
7.5	16.25	0	
7.5	17.5	0	
7.5	18.75	0	
7.5	20	0	
7.5	21.25	0	
7.5	22.5	0	
7.5	23.75	0	
7.5	25	0	
7.5	26.25	0	
7.5	27.5	0	
7.5	28.75	0	
7.5	30	0	
7.5	31.25	0	
7.5	32.5	0	
7.5	33.75	0	
7.5	35	0	
7.5	36.25	0	
7.5	37.5	0	
7.5	38.75	0	
7.5	40	0	
7.5	41.25	0	
7.5	42.5	0	
7.5	43.75	0	
7.5	45	0	
7.5	46.25	0	
7.5	47.5	0	
7.5	48.75	0	
7.5	50	0	
8.75	0	0	
8.75	1.25	0	
8.75	2.5	0	
8.75	3.75	0	
8.75	5	0	
8.75	6.25	0	
8.75	7.5	0	
8.75	8.75	0	
8.75	10	0	
8.75	11.25	0	
8.75	12.5	0	
8.75	13.75	0	
8.75	15	0	
8.75	16.25	0	
8.75	17.5	0	
8.75	18.75	0	
8.75	20	0	
8.75	21.25	0	
8.75	22.5	0	
8.75	23.75	0	
8.75	25	0	
8.75	26.25	0	
8.75	27.5	0	
8.75	28.75	0	
8.75	30	0	
8.75	31.25	0	
8.75	32.5	0	
8.75	33.75	0	
8.75	35	0	
8.75	36.25	0	
8.75	37.5	0	
8.75	38.75	0	
8.75	40	0	
8.75	41.25	0	
8.75	42.5	0	
8.75	43.75	0	
8.75	45	0	
8.75	46.25	0	
8.75	47.5	0	
8.75	48.75	0	
8.75	50	0	
10	0	0	
10	1.25	0	
10	2.5	0	
10	3.75	0	
10	5	0	
10	6.25	0	
10	7.5	0	
10	8.75	0	
10	10	0	
10	11.25	0	
10	12.5	0	
10	13.75	0	
10	15	0	
10	16.25	0	
10	17.5	0	
10	18.75	0	
10	20	0	
10	21.25	0	
10	22.5	0	
10	23.75	0	
10	25	0	
10	26.25	0	
10	27.5	0	
10	28.75	0	
10	30	0	
10	31.25	0	
10	32.5	0	
10	33.75	0	
10	35	0	
10	36.25	0	
10	37.5	0	
10	38.75	0	
10	40	0	
10	41.25	0	
10	42.5	0	
10	43.75	0	
10	45	0	
10	46.25	0	
10	47.5	0	
10	48.75	0	
10	50	0	
11.25	0	0	
11.25	1.25	0	
11.25	2.5	0	
11.25	3.75	0	
11.25	5	0	
11.25	6.25	0	
11.25	7.5	0	
11.25	8.75	0	
11.25	10	0	
11.25	11.25	0	
11.25	12.5	0	
11.25	13.75	0	
11.25	15	0	
11.25	16.25	0	
11.25	17.5	0	
11.25	18.75	0	
11.25	20	0	
11.25	21.25	0	
11.25	22.5	0	
11.25	23.75	0	
11.25	25	0	
11.25	26.25	0	
11.25	27.5	0	
11.25	28.75	0	
11.25	30	0	
11.25	31.25	0	
11.25	32.5	0	
11.25	33.75	0	
11.25	35	0	
11.25	36.25	0	
11.25	37.5	0	
11.25	38.75	0	
11.25	40	0	
11.25	41.25	0	
11.25	42.5	0	
11.25	43.75	0	
11.25	45	0	
11.25	46.25	0	
11.25	47.5	0	
11.25	48.75	0	
11.25	50	0	
12.5	0	0	
12.5	1.25	0	
12.5	2.5	0	
12.5	3.75	0	
12.5	5	0	
12.5	6.25	0	
12.5	7.5	0	
12.5	8.75	0	
12.5	10	0	
12.5	11.25	0	
12.5	12.5	0	
12.5	13.75	0	
12.5	15	0	
12.5	16.25	0	
12.5	17.5	0	
12.5	18.75	0	
12.5	20	0	
12.5	21.25	0	
12.5	22.5	0	
12.5	23.75	0	
12.5	25	0	
12.5	26.25	0	
12.5	27.5	0	
12.5	28.75	0	
12.5	30	0	
12.5	31.25	0	
12.5	32.5	0	
12.5	33.75	0	
12.5	35	0	
12.5	36.25	0	
12.5	37.5	0	
12.5	38.75	0	
12.5	40	0	
12.5	41.25	0	
12.5	42.5	0	
12.5	43.75	0	
12.5	45	0	
12.5	46.25	0	
12.5	47.5	0	
12.5	48.75	0	
12.5	50	0	
13.75	0	0	
13.75	1.25	0	
13.75	2.5	0	
13.75	3.75	0	
13.75	5	0	
13.75	6.25	0	
13.75	7.5	0	
13.75	8.75	0	
13.75	10	0	
13.75	11.25	0	
13.75	12.5	0	
13.75	13.75	0	
13.75	15	0	
13.75	16.25	0	
13.75	17.5	0	
13.75	18.75	0	
13.75	20	0	
13.75	21.25	0	
13.75	22.5	0	
13.75	23.75	0	
13.75	25	0	
13.75	26.25	0	
13.75	27.5	0	
13.75	28.75	0	
13.75	30	0	
13.75	31.25	0	
13.75	32.5	0	
13.75	33.75	0	
13.75	35	0	
13.75	36.25	0	
13.75	37.5	0	
13.75	38.75	0	
13.75	40	0	
13.75	41.25	0	
13.75	42.5	0	
13.75	43.75	0	
13.75	45	0	
13.75	46.25	0	
13.75	47.5	0	
13.75	48.75	0	
13.75	50	0	
15	0	0	
15	1.25	0	
15	2.5	0	
15	3.75	0	
15	5	0	
15	6.25	0	
15	7.5	0	
15	8.75	0	
15	10	0	
15	11.25	0	
15	12.5	0	
15	13.75	0	
15	15	0	
15	16.25	0	
15	17.5	0	
15	18.75	0	
15	20	0	
15	21.25	0	
15	22.5	0	
15	23.75	0	
15	25	0	
15	26.25	0	
15	27.5	0	
15	28.75	0	
15	30	0	
15	31.25	0	
15	32.5	0	
15	33.75	0	
15	35	0	
15	36.25	0	
15	37.5	0	
15	38.75	0	
15	40	0	
15	41.25	0	
15	42.5	0	
15	43.75	0	
15	45	0	
15	46.25	0	
15	47.5	0	
15	48.75	0	
15	50	0	
16.25	0	0	
16.25	1.25	0	
16.25	2.5	0	
16.25	3.75	0	
16.25	5	0	
16.25	6.25	0	
16.25	7.5	0	
16.25	8.75	0	
16.25	10	0	
16.25	11.25	0	
16.25	12.5	0	
16.25	13.75	0	
16.25	15	0	
16.25	16.25	0	
16.25	17.5	0	
16.25	18.75	0	
16.25	20	0	
16.25	21.25	0	
16.25	22.5	0	
16.25	23.75	0	
16.25	25	0	
16.25	26.25	0	
16.25	27.5	0	
16.25	28.75	0	
16.25	30	0	
16.25	31.25	0	
16.25	32.5	0	
16.25	33.75	0	
16.25	35	0	
16.25	36.25	0	
16.25	37.5	0	
16.25	38.75	0	
16.25	40	0	
16.25	41.25	0	
16.25	42.5	0	
16.25	43.75	0	
16.25	45	0	
16.25	46.25	0	
16.25	47.5	0	
16.25	48.75	0	
16.25	50	0	
17.5	0	0	
17.5	1.25	0	
17.5	2.5	0	
17.5	3.75	0	
17.5	5	0	
17.5	6.25	0	
17.5	7.5	0	
17.5	8.75	0	
17.5	10	0	
17.5	11.25	0	
17.5	12.5	0	
17.5	13.75	0	
17.5	15	0	
17.5	16.25	0	
17.5	17.5	0	
17.5	18.75	0	
17.5	20	0	
17.5	21.25	0	
17.5	22.5	0	
17.5	23.75	0	
17.5	25	0	
17.5	26.25	0	
17.5	27.5	0	
17.5	28.75	0	
17.5	30	0	
17.5	31.25	0	
17.5	32.5	0	
17.5	33.75	0	
17.5	35	0	
17.5	36.25	0	
17.5	37.5	0	
17.5	38.75	0	
17.5	40	0	
17.5	41.25	0	
17.5	42.5	0	
17.5	43.75	0	
17.5	45	0	
17.5	46.25	0	
17.5	47.5	0	
17.5	48.75	0	
17.5	50	0	
18.75	0	0	
18.75	1.25	0	
18.75	2.5	0	
18.75	3.75	0	
18.75	5	0	
18.75	6.25	0	
18.75	7.5	0	
18.75	8.75	0	
18.75	10	0	
18.75	11.25	0	
18.75	12.5	0	
18.75	13.75	0	
18.75	15	0	
18.75	16.25	0	
18.75	17.5	0	
18.75	18.75	0	
18.75	20	0	
18.75	21.25	0	
18.75	22.5	0	
18.75	23.75	0	
18.75	25	0	
18.75	26.25	0	
18.75	27.5	0	
18.75	28.75	0	
18.75	30	0	
18.75	31.25	0	
18.75	32.5	0	
18.75	33.75	0	
18.75	35	0	
18.75	36.25	0	
18.75	37.5	0	
18.75	38.75	0	
18.75	40	0	
18.75	41.25	0	
18.75	42.5	0	
18.75	43.75	0	
18.75	45	0	
18.75	46.25	0	
18.75	47.5	0	
18.75	48.75	0	
18.75	50	0	
20	0	0	
20	1.25	0	
20	2.5	0	
20	3.75	0	
20	5	0	
20	6.25	0	
20	7.5	0	
20	8.75	0	
20	10	0	
20	11.25	0	
20	12.5	0	
20	13.75	0	
20	15	0	
20	16.25	0	
20	17.5	0	
20	18.75	0	
20	20	0	
20	21.25	0	
20	22.5	0	
20	23.75	0	
20	25	0	
20	26.25	0	
20	27.5	0	
20	28.75	0	
20	30	0	
20	31.25	0	
20	32.5	0	
20	33.75	0	
20	35	0	
20	36.25	0	
20	37.5	0	
20	38.75	0	
20	40	0	
20	41.25	0	
20	42.5	0	
20	43.75	0	
20	45	0	
20	46.25	0	
20	47.5	0	
20	48.75	0	
20	50	0	
21.25	0	0	
21.25	1.25	0	
21.25	2.5	0	
21.25	3.75	0	
21.25	5	0	
21.25	6.25	0	
21.25	7.5	0	
21.25	8.75	0	
21.25	10	0	
21.25	11.25	0	
21.25	12.5	0	
21.25	13.75	0	
21.25	15	0	
21.25	16.25	0	
21.25	17.5	0	
21.25	18.75	0	
21.25	20	0	
21.25	21.25	0	
21.25	22.5	0	
21.25	23.75	0	
21.25	25	0	
21.25	26.25	0	
21.25	27.5	0	
21.25	28.75	0	
21.25	30	0	
21.25	31.25	0	
21.25	32.5	0	
21.25	33.75	0	
21.25	35	0	
21.25	36.25	0	
21.25	37.5	0	
21.25	38.75	0	
21.25	40	0	
21.25	41.25	0	
21.25	42.5	0	
21.25	43.75	0	
21.25	45	0	
21.25	46.25	0	
21.25	47.5	0	
21.25	48.75	0	
21.25	50	0	
22.5	0	0	
22.5	1.25	0	
22.5	2.5	0	
22.5	3.75	0	
22.5	5	0	
22.5	6.25	0	
22.5	7.5	0	
22.5	8.75	0	
22.5	10	0	
22.5	11.25	0	
22.5	12.5	0	
22.5	13.75	0	
22.5	15	0	
22.5	16.25	0	
22.5	17.5	0	
22.5	18.75	0	
22.5	20	0	
22.5	21.25	0	
22.5	22.5	0	
22.5	23.75	0	
22.5	25	0	
22.5	26.25	0	
22.5	27.5	0	
22.5	28.75	0	
22.5	30	0	
22.5	31.25	0	
22.5	32.5	0	
22.5	33.75	0	
22.5	35	0	
22.5	36.25	0	
22.5	37.5	0	
22.5	38.75	0	
22.5	40	0	
22.5	41.25	0	
22.5	42.5	0	
22.5	43.75	0	
22.5	45	0	
22.5	46.25	0	
22.5	47.5	0	
22.5	48.75	0	
22.5	50	0	
23.75	0	0	
23.75	1.25	0	
23.75	2.5	0	
23.75	3.75	0	
23.75	5	0	
23.75	6.25	0	
23.75	7.5	0	
23.75	8.75	0	
23.75	10	0	
23.75	11.25	0	
23.75	12.5	0	
23.75	13.75	0	
23.75	15	0	
23.75	16.25	0	
23.75	17.5	0	
23.75	18.75	0	
23.75	20	0	
23.75	21.25	0	
23.75	22.5	0	
23.75	23.75	0	
23.75	25	0	
23.75	26.25	0	
23.75	27.5	0	
23.75	28.75	0	
23.75	30	0	
[...]
POINT_DATA	14721
VECTORS u0 float
1.11297e-016	-0.00151858	0	
1.08802e-016	-0.00152116	0	
1.06307e-016	-0.00152367	0	
-9.0415e-016	-0.00164437	0	
-8.11214e-016	-0.00176974	0	
-7.27484e-016	-0.00189948	0	
-6.51441e-016	-0.00203332	0	
-5.83057e-016	-0.00217109	0	
-5.19669e-016	-0.00231263	0	
-4.64101e-016	-0.00245783	0	
-4.13517e-016	-0.0026066	0	
-3.67328e-016	-0.00275892	0	
-3.26381e-016	-0.00291475	0	
-2.8966e-016	-0.00307412	0	
-2.581e-016	-0.00323706	0	
-2.28537e-016	-0.00340364	0	
-2.0473e-016	-0.00357395	0	
-1.84008e-016	-0.00374807	0	
-1.68106e-016	-0.00392611	0	
-1.55326e-016	-0.00410819	0	
-1.48295e-016	-0.00429443	0	
-1.45456e-016	-0.00448495	0	
-1.48056e-016	-0.00467989	0	
-1.57097e-016	-0.00487936	0	
-1.70917e-016	-0.00508347	0	
-1.94318e-016	-0.00529232	0	
-2.25272e-016	-0.00550596	0	
-2.65551e-016	-0.00572444	0	
-3.17449e-016	-0.00594771	0	
-3.81932e-016	-0.00617573	0	
-4.59716e-016	-0.00640836	0	
-5.5411e-016	-0.00664546	0	
-6.63659e-016	-0.00688681	0	
-7.91769e-016	-0.0071322	0	
-9.39462e-016	-0.00738141	0	
-1.10709e-015	-0.00763427	0	
-1.29671e-015	-0.00789065	0	
8.17834e-016	-0.00815059	0	
2.25396e-016	-0.00816307	0	
-3.35516e-016	-0.00816414	0	
-1.24611e-015	-0.00816081	0	
6.07678e-006	-0.00151851	0	
5.94058e-006	-0.00152109	0	
5.80438e-006	-0.0015236	0	
1.24373e-005	-0.00164416	0	
1.84933e-005	-0.00176938	0	
2.40403e-005	-0.00189894	0	
2.91409e-005	-0.0020326	0	
3.38496e-005	-0.00217017	0	
3.82086e-005	-0.0023115	0	
4.2263e-005	-0.00245646	0	
4.60454e-005	-0.002605	0	
4.95902e-005	-0.00275705	0	
5.29241e-005	-0.00291262	0	
5.60725e-005	-0.0030717	0	
5.90587e-005	-0.00323434	0	
6.18959e-005	-0.0034006	0	
6.45955e-005	-0.00357057	0	
6.71588e-005	-0.00374434	0	
6.95857e-005	-0.003922	0	
7.18748e-005	-0.00410369	0	
7.4015e-005	-0.00428951	0	
7.59951e-005	-0.0044796	0	
7.77906e-005	-0.00467408	0	
7.93794e-005	-0.00487307	0	
8.07156e-005	-0.00507669	0	
8.17556e-005	-0.00528501	0	
8.24336e-005	-0.00549812	0	
8.26819e-005	-0.00571603	0	
8.24191e-005	-0.00593873	0	
8.15591e-005	-0.00616614	0	
8.00176e-005	-0.00639817	0	
7.77092e-005	-0.00663461	0	
7.45621e-005	-0.00687527	0	
7.05125e-005	-0.0071199	0	
6.55157e-005	-0.00736825	0	
5.95211e-005	-0.00762009	0	
5.24652e-005	-0.00787519	0	
4.4291e-005	-0.00813327	0	
1.23938e-005	-0.00814526	0	
-1.82013e-005	-0.00814406	0	
-5.23501e-005	-0.00812991	0	
1.21536e-005	-0.00151831	0	
1.18812e-005	-0.00152088	0	
1.16088e-005	-0.0015234	0	
2.48312e-005	-0.00164353	0	
3.68993e-005	-0.00176828	0	
4.79562e-005	-0.00189733	0	
5.8122e-005	-0.00203044	0	
6.75013e-005	-0.00216741	0	
7.61904e-005	-0.0023081	0	
8.42642e-005	-0.00245238	0	
9.18014e-005	-0.00260019	0	
9.88607e-005	-0.00275148	0	
0.000105502	-0.00290623	0	
0.000111774	-0.00306445	0	
0.000117717	-0.00322619	0	
0.000123365	-0.0033915	0	
0.000128734	-0.00356047	0	
0.000133833	-0.00373317	0	
0.000138663	-0.00390972	0	
0.000143212	-0.00409022	0	
0.000147471	-0.00427481	0	
0.000151404	-0.00446359	0	
0.00015498	-0.0046567	0	
0.000158132	-0.00485426	0	
0.000160794	-0.00505638	0	
0.000162856	-0.00526315	0	
0.000164207	-0.00547463	0	
0.000164699	-0.00569088	0	
0.00016417	-0.00591184	0	
0.00016245	-0.00613749	0	
0.000159356	-0.00636766	0	
0.000154715	-0.00660219	0	
0.00014836	-0.00684081	0	
0.000140166	-0.00708321	0	
0.000130015	-0.00732905	0	
0.00011779	-0.00757797	0	
0.000103279	-0.00782955	0	
8.60718e-005	-0.00808315	0	
2.3464e-005	-0.00809403	0	
-3.70808e-005	-0.00809228	0	
-0.000100593	-0.00807809	0	
1.82303e-005	-0.00151797	0	
1.78217e-005	-0.00152054	0	
1.74131e-005	-0.00152306	0	
3.71308e-005	-0.0016425	0	
5.51335e-005	-0.00176647	0	
7.16211e-005	-0.00189467	0	
8.67795e-005	-0.00202685	0	
0.000100766	-0.00216284	0	
0.000113714	-0.00230246	0	
0.000125752	-0.00244562	0	
0.00013698	-0.00259222	0	
0.0001475	-0.00274224	0	
0.000157392	-0.00289565	0	
0.000166733	-0.00305246	0	
0.000175581	-0.00321271	0	
0.000183981	-0.00337644	0	
0.000191966	-0.00354374	0	
0.000199547	-0.00371468	0	
0.000206722	-0.00388937	0	
0.000213486	-0.00406793	0	
0.000219806	-0.00425045	0	
0.000225652	-0.00443707	0	
0.000230955	-0.00462791	0	
0.000235641	-0.00482309	0	
0.000239585	-0.00502272	0	
0.000242654	-0.00522689	0	
0.000244658	-0.00543569	0	
0.000245387	-0.00564914	0	
0.000244598	-0.00586725	0	
0.000242017	-0.00608994	0	
0.000237368	-0.00631709	0	
0.000230351	-0.00654847	0	
0.000220707	-0.00678378	0	
0.000208198	-0.00702263	0	
0.000192648	-0.00726454	0	
0.000173853	-0.00750902	0	
0.000151449	-0.00775548	0	
0.000124677	-0.00800322	0	
3.35132e-005	-0.00801319	0	
-5.53653e-005	-0.00801141	0	
-0.000146621	-0.00799799	0	
2.43071e-005	-0.00151749	0	
2.37623e-005	-0.00152007	0	
2.32175e-005	-0.00152258	0	
4.92976e-005	-0.00164105	0	
7.31039e-005	-0.00176394	0	
9.49131e-005	-0.00189096	0	
0.000114959	-0.00202187	0	
0.000133448	-0.00215647	0	
0.000150567	-0.00229463	0	
0.000166471	-0.00243622	0	
0.000181308	-0.00258116	0	
0.000195201	-0.00272942	0	
0.000208266	-0.00288098	0	
0.000220593	-0.00303583	0	
0.000232262	-0.00319401	0	
0.000243334	-0.00335556	0	
0.00025385	-0.00352054	0	
0.000263828	-0.00368905	0	
0.000273274	-0.00386117	0	
0.000282165	-0.004037	0	
0.000290478	-0.00421667	0	
0.000298154	-0.00440028	0	
0.000305126	-0.00458795	0	
0.000311274	-0.00477981	0	
0.000316462	-0.00497597	0	
0.000320489	-0.00517653	0	
0.000323128	-0.00538157	0	
0.00032409	-0.00559114	0	
0.000323047	-0.00580524	0	
0.000319631	-0.00602383	0	
0.000313434	-0.00624678	0	
0.000304035	-0.00647386	0	
0.000291017	-0.00670472	0	
0.000274033	-0.00693888	0	
0.000252804	-0.00717573	0	
0.000227107	-0.00741462	0	
0.000196556	-0.00765489	0	
0.000160213	-0.00789592	0	
4.26828e-005	-0.00790509	0	
-7.25018e-005	-0.00790336	0	
-0.000190034	-0.0078908	0	
3.03839e-005	-0.00151688	0	
2.97029e-005	-0.00151945	0	
2.90219e-005	-0.00152197	0	
6.12791e-005	-0.0016392	0	
9.07338e-005	-0.00176073	0	
0.00011771	-0.00188624	0	
0.000142505	-0.00201552	0	
0.00016537	-0.00214838	0	
0.000186529	-0.00228466	0	
0.000206186	-0.00242427	0	
0.000224515	-0.00256711	0	
0.000241678	-0.00271314	0	
0.000257801	-0.00286234	0	
0.00027301	-0.00301471	0	
0.00028739	-0.00317026	0	
0.000301024	-0.00332903	0	
0.00031396	-0.00349109	0	
0.00032623	-0.0036565	0	
0.000337829	-0.00382535	0	
0.000348749	-0.00399773	0	
0.00035894	-0.00417376	0	
0.000368354	-0.00435353	0	
0.000376892	-0.00453717	0	
0.00038443	-0.0047248	0	
0.00039078	-0.00491652	0	
0.000395721	-0.00511245	0	
0.000398957	-0.00531268	0	
0.000400145	-0.00551726	0	
0.000398871	-0.00572623	0	
0.000394661	-0.00593957	0	
0.000386981	-0.00615718	0	
0.000375242	-0.00637884	0	
0.000358857	-0.00660421	0	
0.000337284	-0.00683273	0	
0.000310141	-0.00706368	0	
0.000277237	-0.0072962	0	
0.00023839	-0.00752956	0	
0.00019284	-0.00776331	0	
5.09005e-005	-0.00777165	0	
-8.86694e-005	-0.00776993	0	
-0.000230553	-0.0077582	0	
3.64606e-005	-0.00151613	0	
3.56435e-005	-0.0015187	0	
3.48263e-005	-0.00152122	0	
7.30413e-005	-0.00163697	0	
0.000107936	-0.00175684	0	
0.000139901	-0.00188055	0	
0.000169272	-0.00200786	0	
0.000196351	-0.00213862	0	
0.000221402	-0.00227265	0	
0.000244665	-0.00240987	0	
0.000266353	-0.00255017	0	
0.000286642	-0.00269353	0	
0.0003057	-0.0028399	0	
0.000323647	-0.00298927	0	
0.000340608	-0.00314166	0	
0.000356667	-0.0032971	0	
0.000371892	-0.00345563	0	
0.00038631	-0.00361732	0	
0.000399935	-0.00378223	0	
0.000412736	-0.00395046	0	
0.000424683	-0.0041221	0	
0.000435699	-0.00429725	0	
0.000445689	-0.00447602	0	
0.000454499	-0.00465852	0	
0.000461926	-0.00484487	0	
0.000467698	-0.00503518	0	
0.000471488	-0.00522955	0	
0.000472885	-0.00542805	0	
0.000471406	-0.00563075	0	
0.000466476	-0.00583766	0	
0.000457427	-0.00604875	0	
0.000443505	-0.00626387	0	
0.000423888	-0.00648272	0	
0.000397787	-0.00670481	0	
0.000364585	-0.00692929	0	
0.000324142	-0.00715506	0	
0.000276817	-0.00738113	0	
0.000222618	-0.00760723	0	
5.8153e-005	-0.00761477	0	
-0.000103871	-0.00761311	0	
-0.000268156	-0.00760221	0	
4.25374e-005	-0.00151524	0	
4.15841e-005	-0.00151782	0	
4.06308e-005	-0.00152033	0	
8.45382e-005	-0.00163436	0	
0.000124643	-0.00175232	0	
0.000161375	-0.00187392	0	
0.000195124	-0.00199896	0	
0.000226226	-0.00212727	0	
0.000254994	-0.0022587	0	
0.000281697	-0.00239314	0	
0.000306575	-0.00253051	0	
0.000329841	-0.00267076	0	
0.00035166	-0.00281385	0	
0.000372201	-0.00295975	0	
0.000391578	-0.00310848	0	
0.000409907	-0.00326004	0	
0.000427255	-0.00341449	0	
0.000443667	-0.00357186	0	
0.000459144	-0.00373221	0	
0.000473673	-0.00389562	0	
0.000487204	-0.00406216	0	
0.000499671	-0.00423194	0	
0.000510959	-0.00440504	0	
0.000520905	-0.00458157	0	
0.000529278	-0.00476165	0	
0.000535786	-0.00494538	0	
0.000540052	-0.00513285	0	
0.000541628	-0.00532419	0	
0.000539959	-0.00551945	0	
0.000534395	-0.00571873	0	
0.000524148	-0.00592204	0	
0.000508301	-0.00612937	0	
0.000485803	-0.00634059	0	
0.000455505	-0.00655536	0	
0.000416375	-0.00677297	0	
0.000368109	-0.00699205	0	
0.000311678	-0.00721105	0	
0.000249498	-0.00742947	0	
6.45255e-005	-0.00743623	0	
-0.000118046	-0.00743495	0	
-0.000302851	-0.00742495	0	
4.86141e-005	-0.00151422	0	
4.75246e-005	-0.0015168	0	
4.64352e-005	-0.00151931	0	
9.57432e-005	-0.00163139	0	
0.000140783	-0.00174718	0	
0.000182037	-0.00186641	0	
0.000219928	-0.00198888	0	
0.000254846	-0.00211443	0	
0.000287126	-0.00224291	0	
0.000317078	-0.00237422	0	
0.000344968	-0.00250828	0	
0.000371014	-0.00264503	0	
0.000395431	-0.00278441	0	
0.00041837	-0.0029264	0	
0.000439991	-0.003071	0	
0.000460404	-0.0032182	0	
0.000479696	-0.00336804	0	
0.000497908	-0.00352054	0	
0.000515056	-0.00367574	0	
0.000531116	-0.00383371	0	
0.00054605	-0.00399451	0	
0.000559779	-0.00415821	0	
0.000572184	-0.0043249	0	
0.000583092	-0.00449467	0	
0.000592257	-0.00466762	0	
0.000599355	-0.00484384	0	
0.000603991	-0.00502344	0	
0.000605668	-0.00520652	0	
0.000603801	-0.0053932	0	
0.000597662	-0.00558357	0	
0.000586395	-0.00577774	0	
0.00056895	-0.00597583	0	
0.000544089	-0.00617792	0	
0.000510327	-0.00638406	0	
0.000466112	-0.00659398	0	
0.000409847	-0.00680701	0	
0.000342856	-0.00702031	0	
0.000273202	-0.00723122	0	
7.04557e-005	-0.00723758	0	
-0.000130734	-0.0072378	0	
-0.000335131	-0.00722877	0	
5.46908e-005	-0.00151306	0	
5.34652e-005	-0.00151564	0	
5.22396e-005	-0.00151816	0	
0.000106619	-0.00162808	0	
0.000156297	-0.00174147	0	
0.000201791	-0.00185807	0	
0.000243577	-0.0019777	0	
0.000282067	-0.0021002	0	
0.000317642	-0.00222543	0	
0.00035063	-0.00235328	0	
0.000381315	-0.00248368	0	
0.000409956	-0.00261656	0	
0.000436749	-0.00275185	0	
0.000461902	-0.00288952	0	
0.000485558	-0.00302956	0	
0.000507855	-0.00317195	0	
0.00052888	-0.0033167	0	
0.00054869	-0.00346382	0	
0.00056729	-0.00361334	0	
0.000584675	-0.00376531	0	
0.000600795	-0.00391976	0	
0.000615572	-0.00407676	0	
0.000628887	-0.00423636	0	
0.000640548	-0.00439864	0	
0.000650302	-0.00456366	0	
0.000657812	-0.00473153	0	
0.000662651	-0.00490231	0	
0.000664313	-0.00507613	0	
0.000662163	-0.00525306	0	
0.000655455	-0.00543325	0	
0.000643261	-0.00561684	0	
0.000624482	-0.005804	0	
0.000597774	-0.00599499	0	
0.000561495	-0.00619018	0	
0.000513688	-0.00639009	0	
0.000451256	-0.00659645	0	
0.000373943	-0.00680569	0	
0.000288948	-0.00701652	0	
7.78472e-005	-0.00702122	0	
-0.000141258	-0.00702356	0	
-0.000367468	-0.00701474	0	
6.07676e-005	-0.00151177	0	
5.94058e-005	-0.00151435	0	
5.80441e-005	-0.00151686	0	
0.000117139	-0.00162443	0	
0.000171125	-0.0017352	0	
0.000220565	-0.00184895	0	
0.000265963	-0.00196549	0	
0.000307777	-0.00208467	0	
0.000346398	-0.00220637	0	
0.000382187	-0.00233048	0	
0.000415452	-0.00245691	0	
0.000446447	-0.00258559	0	
0.000475419	-0.00271644	0	
0.000502551	-0.00284943	0	
0.000528029	-0.00298453	0	
0.000551985	-0.00312169	0	
0.000574522	-0.00326093	0	
0.000595693	-0.00340223	0	
0.000615525	-0.0035456	0	
0.000633994	-0.00369106	0	
0.000651063	-0.00383863	0	
0.000666654	-0.00398836	0	
0.000680629	-0.00414026	0	
0.000692806	-0.00429439	0	
0.000702911	-0.0044508	0	
0.000710598	-0.00460953	0	
0.000715434	-0.00477066	0	
0.000716883	-0.00493425	0	
0.000714305	-0.0051004	0	
0.000706906	-0.00526919	0	
0.000693747	-0.00544077	0	
0.000673671	-0.00561526	0	
0.000645306	-0.00579288	0	
0.000607	-0.00597389	0	
0.000556737	-0.0061591	0	
0.000492152	-0.00634867	0	
0.000409062	-0.00654831	0	
0.000292561	-0.00679913	0	
9.19857e-005	-0.00679256	0	
-0.000150739	-0.00678844	0	
-0.000404039	-0.00677744	0	
6.68443e-005	-0.00151034	0	
6.53464e-005	-0.00151292	0	
6.38485e-005	-0.00151543	0	
0.000127274	-0.00162046	0	
0.000185221	-0.00172842	0	
0.000238285	-0.0018391	0	
0.000287009	-0.00195233	0	
0.000331863	-0.00206797	0	
0.000373275	-0.0021859	0	
0.000411616	-0.002306	0	
0.000447207	-0.00242818	0	
0.000480336	-0.00255237	0	
0.000511231	-0.00267848	0	
0.000540123	-0.00280647	0	
0.000567182	-0.00293628	0	
0.000592561	-0.00306788	0	
0.000616365	-0.00320123	0	
0.000638663	-0.00333632	0	
0.000659466	-0.00347313	0	
0.000678773	-0.00361165	0	
0.000696534	-0.0037519	0	
0.000712667	-0.00389386	0	
0.000727044	-0.00403755	0	
0.000739455	-0.00418297	0	
0.00074964	-0.00433014	0	
0.000757234	-0.00447909	0	
0.000761798	-0.00462982	0	
0.000762788	-0.00478239	0	
0.000759534	-0.00493683	0	
0.000751233	-0.0050932	0	
0.000736887	-0.00525153	0	
0.000715304	-0.00541186	0	
0.000685004	-0.00557416	0	
0.000644203	-0.00573834	0	
0.000590449	-0.00590373	0	
0.000520865	-0.00606966	0	
0.000424194	-0.00622405	0	
0.000283186	-0.00637146	0	
0.000125349	-0.00651388	0	
-0.000158807	-0.00651685	0	
-0.000442908	-0.00650757	0	
7.2921e-005	-0.00150877	0	
7.1287e-005	-0.00151135	0	
6.96529e-005	-0.00151387	0	
0.000137003	-0.0016162	0	
0.000198545	-0.00172118	0	
0.000254901	-0.0018286	0	
0.000306634	-0.00193833	0	
0.000354245	-0.00205022	0	
0.000398168	-0.00216415	0	
0.000438794	-0.00228001	0	
0.000476463	-0.00239771	0	
0.000511457	-0.00251715	0	
0.000544047	-0.00263826	0	
0.00057444	-0.00276097	0	
0.000602838	-0.00288522	0	
0.00062939	-0.00301095	0	
0.000654213	-0.00313812	0	
0.000677368	-0.00326667	0	
0.000698892	-0.00339659	0	
0.000718761	-0.00352783	0	
0.000736938	-0.00366036	0	
0.000753337	-0.00379417	0	
0.000767811	-0.00392921	0	
0.000780171	-0.00406547	0	
0.000790124	-0.00420292	0	
0.000797324	-0.00434154	0	
0.00080131	-0.00448131	0	
0.000801534	-0.00462222	0	
0.00079731	-0.00476425	0	
0.000787796	-0.00490738	0	
0.000771963	-0.00505158	0	
0.000748517	-0.00519675	0	
0.000715838	-0.00534271	0	
0.000671821	-0.00548905	0	
0.000613376	-0.00563479	0	
0.000536227	-0.00577868	0	
0.000432486	-0.00591896	0	
0.000295082	-0.00605943	0	
0.000146676	-0.00620949	0	
-0.00016534	-0.00621222	0	
-0.000476893	-0.00620439	0	
7.89977e-005	-0.00150707	0	
7.72275e-005	-0.00150965	0	
7.54574e-005	-0.00151216	0	
0.000146309	-0.00161166	0	
0.000211063	-0.00171351	0	
0.000270361	-0.00181753	0	
0.000324784	-0.00192358	0	
0.000374843	-0.00203154	0	
0.000420993	-0.00214129	0	
0.00046363	-0.00225271	0	
0.000503099	-0.00236572	0	
0.000539715	-0.00248021	0	
0.000573728	-0.0025961	0	
0.00060538	-0.00271331	0	
0.000634858	-0.00283177	0	
0.000662329	-0.0029514	0	
0.000687903	-0.00307214	0	
0.000711661	-0.00319392	0	
0.000733616	-0.00331667	0	
0.000753775	-0.00344035	0	
0.000772077	-0.00356489	0	
0.000788435	-0.00369023	0	
0.000802713	-0.00381631	0	
0.000814691	-0.00394307	0	
0.000824104	-0.00407043	0	
0.000830573	-0.00419834	0	
0.000833657	-0.00432673	0	
0.000832778	-0.00445553	0	
0.000827249	-0.00458468	0	
0.000816202	-0.00471408	0	
0.000798557	-0.00484363	0	
0.000772962	-0.00497319	0	
0.00073767	-0.00510254	0	
0.000690397	-0.00523137	0	
0.000628027	-0.00535928	0	
0.000546277	-0.00548606	0	
0.000441066	-0.00561323	0	
0.000311198	-0.00574427	0	
0.000161993	-0.00588116	0	
-0.000171109	-0.00588252	0	
-0.000504241	-0.0058761	0	
8.50744e-005	-0.00150523	0	
8.31681e-005	-0.00150781	0	
8.12619e-005	-0.00151033	0	
0.000155181	-0.00160687	0	
0.000222755	-0.00170546	0	
0.000284633	-0.00180594	0	
0.00034141	-0.00190818	0	
0.000393607	-0.00201206	0	
0.000441683	-0.00211747	0	
0.000486044	-0.0022243	0	
0.000527049	-0.00233245	0	
0.000565007	-0.00244182	0	
0.000600198	-0.00255233	0	
0.000632843	-0.00266387	0	
0.00066315	-0.00277637	0	
0.000691273	-0.00288973	0	
0.00071734	-0.00300386	0	
0.000741412	-0.00311867	0	
0.000763537	-0.00323409	0	
0.000783684	-0.00335001	0	
0.000801817	-0.00346636	0	
0.000817834	-0.00358304	0	
0.000831587	-0.00369995	0	
0.000842874	-0.00381699	0	
0.000851402	-0.00393404	0	
0.000856816	-0.00405102	0	
0.000858645	-0.00416779	0	
0.000856331	-0.00428424	0	
0.000849158	-0.00440024	0	
0.00083626	-0.00451567	0	
0.000816541	-0.00463038	0	
0.000788626	-0.00474423	0	
0.000750776	-0.00485707	0	
0.000700758	-0.00496882	0	
0.000635789	-0.00507961	0	
0.00055263	-0.00519012	0	
0.000448343	-0.00530187	0	
0.000321427	-0.00541676	0	
0.000170961	-0.00553483	0	
-0.000177062	-0.00553478	0	
-0.00052508	-0.00552974	0	
9.11511e-005	-0.00150326	0	
8.91087e-005	-0.00150584	0	
8.70664e-005	-0.00150835	0	
0.000163614	-0.00160185	0	
0.000233604	-0.00169708	0	
0.000297696	-0.00179391	0	
0.000356484	-0.00189222	0	
0.000410495	-0.00199191	0	
0.000460195	-0.00209287	0	
0.000505992	-0.00219499	0	
0.000548252	-0.00229817	0	
0.000587295	-0.0024023	0	
0.000623391	-0.00250729	0	
0.00065678	-0.00261305	0	
0.000687651	-0.00271947	0	
0.000716172	-0.00282644	0	
0.000742453	-0.00293384	0	
0.000766584	-0.00304159	0	
0.000788577	-0.00314954	0	
0.00080844	-0.00325761	0	
0.000826101	-0.00336567	0	
0.000841467	-0.00347359	0	
0.00085439	-0.00358123	0	
0.00086465	-0.00368846	0	
0.000871974	-0.00379513	0	
0.000875985	-0.00390109	0	
0.000876235	-0.00400618	0	
0.000872137	-0.00411023	0	
0.000863006	-0.00421307	0	
0.000847965	-0.00431453	0	
0.00082595	-0.00441444	0	
0.000795632	-0.00451268	0	
0.000755366	-0.00460918	0	
0.000703143	-0.00470402	0	
0.000636573	-0.00479756	0	
0.00055303	-0.0048906	0	
0.000449895	-0.00498432	0	
0.000324567	-0.00507973	0	
0.000173401	-0.00517682	0	
-0.000183	-0.00517537	0	
-0.000539402	-0.00517173	0	
9.72277e-005	-0.00150115	0	
9.50493e-005	-0.00150372	0	
9.28709e-005	-0.00150624	0	
0.000171601	-0.00159661	0	
0.000243605	-0.0016884	0	
0.000309536	-0.0017815	0	
0.00036999	-0.00187581	0	
0.000425493	-0.00197123	0	
0.00047651	-0.00206766	0	
0.000523457	-0.00216499	0	
0.000566697	-0.00226311	0	
0.000606553	-0.00236193	0	
0.0006433	-0.00246135	0	
0.000677168	-0.00256124	0	
0.000708352	-0.00266151	0	
0.000737003	-0.00276202	0	
0.000763249	-0.00286266	0	
0.000787151	-0.00296328	0	
0.000808759	-0.00306375	0	
0.000828039	-0.00316393	0	
0.000844943	-0.00326369	0	
0.000859363	-0.00336284	0	
0.00087114	-0.00346124	0	
0.00088007	-0.0035587	0	
0.00088586	-0.00365504	0	
0.000888157	-0.00375007	0	
0.000886487	-0.00384358	0	
0.000880303	-0.00393536	0	
0.0008689	-0.00402521	0	
0.000851457	-0.00411291	0	
0.000826944	-0.00419828	0	
0.000794127	-0.00428118	0	
0.000751518	-0.00436157	0	
0.000697349	-0.00443956	0	
0.000629592	-0.00451552	0	
0.000545948	-0.00459012	0	
0.000443809	-0.00466424	0	
0.000319882	-0.00473867	0	
0.000169347	-0.00481368	0	
-0.000188941	-0.00481084	0	
-0.000547229	-0.00480859	0	
0.000103304	-0.0014989	0	
0.00010099	-0.00150148	0	
9.86754e-005	-0.001504	0	
0.000179146	-0.00159118	0	
0.000252757	-0.00167947	0	
0.000320158	-0.00176879	0	
0.000381931	-0.00185905	0	
0.000438603	-0.00195015	0	
0.000490637	-0.002042	0	
0.000538444	-0.00213449	0	
0.000582391	-0.00222753	0	
0.000622798	-0.00232101	0	
0.000659934	-0.00241482	0	
0.000694029	-0.00250884	0	
0.000725268	-0.00260294	0	
0.000753805	-0.00269699	0	
0.000779747	-0.00279085	0	
0.000803181	-0.00288437	0	
0.00082412	-0.00297739	0	
0.000842559	-0.00306974	0	
0.000858426	-0.00316126	0	
0.000871611	-0.00325176	0	
0.000881962	-0.00334103	0	
0.000889259	-0.00342888	0	
0.000893227	-0.00351508	0	
0.000893494	-0.00359941	0	
0.000889619	-0.00368161	0	
0.000881036	-0.00376145	0	
0.000867098	-0.00383866	0	
0.000846995	-0.00391302	0	
0.000819781	-0.00398429	0	
0.000784323	-0.0040523	0	
0.000739292	-0.00411697	0	
0.000683164	-0.00417835	0	
0.00061419	-0.00423669	0	
0.000530353	-0.00429246	0	
0.000429138	-0.00434639	0	
0.000307032	-0.00439928	0	
0.000158792	-0.0044519	0	