# vtk DataFile Version 4.1
vtk output
ASCII
DATASET UNSTRUCTURED_GRID

POINTS	14721	float
0	0	0	
0	1.25	0	
0	2.5	0	
0	3.75	0	
0	5	0	
0	6.25	0	
0	7.5	0	
0	8.75	0	
0	10	0	
0	11.25	0	
0	12.5	0	
0	13.75	0	
0	15	0	
0	16.25	0	
0	17.5	0	
0	18.75	0	
0	20	0	
0	21.25	0	
0	22.5	0	
0	23.75	0	
0	25	0	
0	26.25	0	
0	27.5	0	
0	28.75	0	
0	30	0	
0	31.25	0	
0	32.5	0	
0	33.75	0	
0	35	0	
0	36.25	0	
0	37.5	0	
0	38.75	0	
0	40	0	
0	41.25	0	
0	42.5	0	
0	43.75	0	
0	45	0	
0	46.25	0	
0	47.5	0	
0	48.75	0	
0	50	0	
1.25	0	0	
1.25	1.25	0	
1.25	2.5	0	
1.25	3.75	0	
1.25	5	0	
1.25	6.25	0	
1.25	7.5	0	
1.25	8.75	0	
1.25	10	0	
1.25	11.25	0	
1.25	12.5	0	
1.25	13.75	0	
1.25	15	0	
1.25	16.25	0	
1.25	17.5	0	
1.25	18.75	0	
1.25	20	0	
1.25	21.25	0	
1.25	22.5	0	
1.25	23.75	0	
1.25	25	0	
1.25	26.25	0	
1.25	27.5	0	
1.25	28.75	0	
1.25	30	0	
1.25	31.25	0	
1.25	32.5	0	
1.25	33.75	0	
1.25	35	0	
1.25	36.25	0	
1.25	37.5	0	
1.25	38.75	0	
1.25	40	0	
1.25	41.25	0	
1.25	42.5	0	
1.25	43.75	0	
1.25	45	0	
1.25	46.25	0	
1.25	47.5	0	
1.25	48.75	0	
1.25	50	0	
2.5	0	0	
2.5	1.25	0	
2.5	2.5	0	
2.5	3.75	0	
2.5	5	0	
2.5	6.25	0	
2.5	7.5	0	
2.5	8.75	0	
2.5	10	0	
2.5	11.25	0	
2.5	12.5	0	
2.5	13.75	0	
2.5	15	0	
2.5	16.25	0	
2.5	17.5	0	
2.5	18.75	0	
2.5	20	0	
2.5	21.25	0	
2.5	22.5	0	
2.5	23.75	0	
2.5	25	0	
2.5	26.25	0	
2.5	27.5	0	
2.5	28.75	0	
2.5	30	0	
2.5	31.25	0	
2.5	32.5	0	
2.5	33.75	0	
2.5	35	0	
2.5	36.25	0	
2.5	37.5	0	
2.5	38.75	0	
2.5	40	0	
2.5	41.25	0	
2.5	42.5	0	
2.5	43.75	0	
2.5	45	0	
2.5	46.25	0	
2.5	47.5	0	
2.5	48.75	0	
2.5	50	0	
3.75	0	0	
3.75	1.25	0	
3.75	2.5	0	
3.75	3.75	0	
3.75	5	0	
3.75	6.25	0	
3.75	7.5	0	
3.75	8.75	0	
3.75	10	0	
3.75	11.25	0	
3.75	12.5	0	
3.75	13.75	0	
3.75	15	0	
3.75	16.25	0	
3.75	17.5	0	
3.75	18.75	0	
3.75	20	0	
3.75	21.25	0	
3.75	22.5	0	
3.75	23.75	0	
3.75	25	0	
3.75	26.25	0	
3.75	27.5	0	
3.75	28.75	0	
3.75	30	0	
3.75	31.25	0	
3.75	32.5	0	
3.75	33.75	0	
3.75	35	0	
3.75	36.25	0	
3.75	37.5	0	
3.75	38.75	0	
3.75	40	0	
3.75	41.25	0	
3.75	42.5	0	
3.75	43.75	0	
3.75	45	0	
3.75	46.25	0	
3.75	47.5	0	
3.75	48.75	0	
3.75	50	0	
5	0	0	
5	1.25	0	
5	2.5	0	
5	3.75	0	
5	5	0	
5	6.25	0	
5	7.5	0	
5	8.75	0	
5	10	0	
5	11.25	0	
5	12.5	0	
5	13.75	0	
5	15	0	
5	16.25	0	
5	17.5	0	
5	18.75	0	
5	20	0	
5	21.25	0	
5	22.5	0	
5	23.75	0	
5	25	0	
5	26.25	0	
5	27.5	0	
5	28.75	0	
5	30	0	
5	31.25	0	
5	32.5	0	
5	33.75	0	
5	35	0	
5	36.25	0	
5	37.5	0	
5	38.75	0	
5	40	0	
5	41.25	0	
5	42.5	0	
5	43.75	0	
5	45	0	
5	46.25	0	
5	47.5	0	
5	48.75	0	
5	50	0	
6.25	0	0	
6.25	1.25	0	
6.25	2.5	0	
6.25	3.75	0	
6.25	5	0	
6.25	6.25	0	
6.25	7.5	0	
6.25	8.75	0	
6.25	10	0	
6.25	11.25	0	
6.25	12.5	0	
6.25	13.75	0	
6.25	15	0	
6.25	16.25	0	
6.25	17.5	0	
6.25	18.75	0	
6.25	20	0	
6.25	21.25	0	
6.25	22.5	0	
6.25	23.75	0	
6.25	25	0	
6.25	26.25	0	
6.25	27.5	0	
6.25	28.75	0	
6.25	30	0	
6.25	31.25	0	
6.25	32.5	0	
6.25	33.75	0	
6.25	35	0	
6.25	36.25	0	
6.25	37.5	0	
6.25	38.75	0	
6.25	40	0	
6.25	41.25	0	
6.25	42.5	0	
6.25	43.75	0	
6.25	45	0	
6.25	46.25	0	
6.25	47.5	0	
6.25	48.75	0	
6.25	50	0	
7.5	0	0	
7.5	1.25	0	
7.5	2.5	0	
7.5	3.75	0	
7.5	5	0	
7.5	6.25	0	
7.5	7.5	0	
7.5	8.75	0	
7.5	10	0	
7.5	11.25	0	
7.5	12.5	0	
7.5	13.75	0	
7.5	15	0	
7.5	16.25	0	
7.5	17.5	0	
7.5	18.75	0	
7.5	20	0	
7.5	21.25	0	
7.5	22.5	0	
7.5	23.75	0	
7.5	25	0	
7.5	26.25	0	
7.5	27.5	0	
7.5	28.75	0	
7.5	30	0	
7.5	31.25	0	
7.5	32.5	0	
7.5	33.75	0	
7.5	35	0	
7.5	36.25	0	
7.5	37.5	0	
7.5	38.75	0	
7.5	40	0	
7.5	41.25	0	
7.5	42.5	0	
7.5	43.75	0	
7.5	45	0	
7.5	46.25	0	
7.5	47.5	0	
7.5	48.75	0	
7.5	50	0	
8.75	0	0	
8.75	1.25	0	
8.75	2.5	0	
8.75	3.75	0	
8.75	5	0	
8.75	6.25	0	
8.75	7.5	0	
8.75	8.75	0	
8.75	10	0	
8.75	11.25	0	
8.75	12.5	0	
8.75	13.75	0	
8.75	15	0	
8.75	16.25	0	
8.75	17.5	0	
8.75	18.75	0	
8.75	20	0	
8.75	21.25	0	
8.75	22.5	0	
8.75	23.75	0	
8.75	25	0	
8.75	26.25	0	
8.75	27.5	0	
8.75	28.75	0	
8.75	30	0	
8.75	31.25	0	
8.75	32.5	0	
8.75	33.75	0	
8.75	35	0	
8.75	36.25	0	
8.75	37.5	0	
8.75	38.75	0	
8.75	40	0	
8.75	41.25	0	
8.75	42.5	0	
8.75	43.75	0	
8.75	45	0	
8.75	46.25	0	
8.75	47.5	0	
8.75	48.75	0	
8.75	50	0	
10	0	0	
10	1.25	0	
10	2.5	0	
10	3.75	0	
10	5	0	
10	6.25	0	
10	7.5	0	
10	8.75	0	
10	10	0	
10	11.25	0	
10	12.5	0	
10	13.75	0	
10	15	0	
10	16.25	0	
10	17.5	0	
10	18.75	0	
10	20	0	
10	21.25	0	
10	22.5	0	
10	23.75	0	
10	25	0	
10	26.25	0	
10	27.5	0	
10	28.75	0	
10	30	0	
10	31.25	0	
10	32.5	0	
10	33.75	0	
10	35	0	
10	36.25	0	
10	37.5	0	
10	38.75	0	
10	40	0	
10	41.25	0	
10	42.5	0	
10	43.75	0	
10	45	0	
10	46.25	0	
10	47.5	0	
10	48.75	0	
10	50	0	
11.25	0	0	
11.25	1.25	0	
11.25	2.5	0	
11.25	3.75	0	
11.25	5	0	
11.25	6.25	0	
11.25	7.5	0	
11.25	8.75	0	
11.25	10	0	
11.25	11.25	0	
11.25	12.5	0	
11.25	13.75	0	
11.25	15	0	
11.25	16.25	0	
11.25	17.5	0	
11.25	18.75	0	
11.25	20	0	
11.25	21.25	0	
11.25	22.5	0	
11.25	23.75	0	
11.25	25	0	
11.25	26.25	0	
11.25	27.5	0	
11.25	28.75	0	
11.25	30	0	
11.25	31.25	0	
11.25	32.5	0	
11.25	33.75	0	
11.25	35	0	
11.25	36.25	0	
11.25	37.5	0	
11.25	38.75	0	
11.25	40	0	
11.25	41.25	0	
11.25	42.5	0	
11.25	43.75	0	
11.25	45	0	
11.25	46.25	0	
11.25	47.5	0	
11.25	48.75	0	
11.25	50	0	
12.5	0	0	
12.5	1.25	0	
12.5	2.5	0	
12.5	3.75	0	
12.5	5	0	
12.5	6.25	0	
12.5	7.5	0	
12.5	8.75	0	
12.5	10	0	
12.5	11.25	0	
12.5	12.5	0	
12.5	13.75	0	
12.5	15	0	
12.5	16.25	0	
12.5	17.5	0	
12.5	18.75	0	
12.5	20	0	
12.5	21.25	0	
12.5	22.5	0	
12.5	23.75	0	
12.5	25	0	
12.5	26.25	0	
12.5	27.5	0	
12.5	28.75	0	
12.5	30	0	
12.5	31.25	0	
12.5	32.5	0	
12.5	33.75	0	
12.5	35	0	
12.5	36.25	0	
12.5	37.5	0	
12.5	38.75	0	
12.5	40	0	
12.5	41.25	0	
12.5	42.5	0	
12.5	43.75	0	
12.5	45	0	
12.5	46.25	0	
12.5	47.5	0	
12.5	48.75	0	
12.5	50	0	
13.75	0	0	
13.75	1.25	0	
13.75	2.5	0	
13.75	3.75	0	
13.75	5	0	
13.75	6.25	0	
13.75	7.5	0	
13.75	8.75	0	
13.75	10	0	
13.75	11.25	0	
13.75	12.5	0	
13.75	13.75	0	
13.75	15	0	
13.75	16.25	0	
13.75	17.5	0	
13.75	18.75	0	
13.75	20	0	
13.75	21.25	0	
13.75	22.5	0	
13.75	23.75	0	
13.75	25	0	
13.75	26.25	0	
13.75	27.5	0	
13.75	28.75	0	
13.75	30	0	
13.75	31.25	0	
13.75	32.5	0	
13.75	33.75	0	
13.75	35	0	
13.75	36.25	0	
13.75	37.5	0	
13.75	38.75	0	
13.75	40	0	
13.75	41.25	0	
13.75	42.5	0	
13.75	43.75	0	
13.75	45	0	
13.75	46.25	0	
13.75	47.5	0	
13.75	48.75	0	
13.75	50	0	
15	0	0	
15	1.25	0	
15	2.5	0	
15	3.75	0	
15	5	0	
15	6.25	0	
15	7.5	0	
15	8.75	0	
15	10	0	
15	11.25	0	
15	12.5	0	
15	13.75	0	
15	15	0	
15	16.25	0	
15	17.5	0	
15	18.75	0	
15	20	0	
15	21.25	0	
15	22.5	0	
15	23.75	0	
15	25	0	
15	26.25	0	
15	27.5	0	
15	28.75	0	
15	30	0	
15	31.25	0	
15	32.5	0	
15	33.75	0	
15	35	0	
15	36.25	0	
15	37.5	0	
15	38.75	0	
15	40	0	
15	41.25	0	
15	42.5	0	
15	43.75	0	
15	45	0	
15	46.25	0	
15	47.5	0	
15	48.75	0	
15	50	0	
16.25	0	0	
16.25	1.25	0	
16.25	2.5	0	
16.25	3.75	0	
16.25	5	0	
16.25	6.25	0	
16.25	7.5	0	
16.25	8.75	0	
16.25	10	0	
16.25	11.25	0	
16.25	12.5	0	
16.25	13.75	0	
16.25	15	0	
16.25	16.25	0	
16.25	17.5	0	
16.25	18.75	0	
16.25	20	0	
16.25	21.25	0	
16.25	22.5	0	
16.25	23.75	0	
16.25	25	0	
16.25	26.25	0	
16.25	27.5	0	
16.25	28.75	0	
16.25	30	0	
16.25	31.25	0	
16.25	32.5	0	
16.25	33.75	0	
16.25	35	0	
16.25	36.25	0	
16.25	37.5	0	
16.25	38.75	0	
16.25	40	0	
16.25	41.25	0	
16.25	42.5	0	
16.25	43.75	0	
16.25	45	0	
16.25	46.25	0	
16.25	47.5	0	
16.25	48.75	0	
16.25	50	0	
17.5	0	0	
17.5	1.25	0	
17.5	2.5	0	
17.5	3.75	0	
17.5	5	0	
17.5	6.25	0	
17.5	7.5	0	
17.5	8.75	0	
17.5	10	0	
17.5	11.25	0	
17.5	12.5	0	
17.5	13.75	0	
17.5	15	0	
17.5	16.25	0	
17.5	17.5	0	
17.5	18.75	0	
17.5	20	0	
17.5	21.25	0	
17.5	22.5	0	
17.5	23.75	0	
17.5	25	0	
17.5	26.25	0	
17.5	27.5	0	
17.5	28.75	0	
17.5	30	0	
17.5	31.25	0	
17.5	32.5	0	
17.5	33.75	0	
17.5	35	0	
17.5	36.25	0	
17.5	37.5	0	
17.5	38.75	0	
17.5	40	0	
17.5	41.25	0	
17.5	42.5	0	
17.5	43.75	0	
17.5	45	0	
17.5	46.25	0	
17.5	47.5	0	
17.5	48.75	0	
17.5	50	0	
18.75	0	0	
18.75	1.25	0	
18.75	2.5	0	
18.75	3.75	0	
18.75	5	0	
18.75	6.25	0	
18.75	7.5	0	
18.75	8.75	0	
18.75	10	0	
18.75	11.25	0	
18.75	12.5	0	
18.75	13.75	0	
18.75	15	0	
18.75	16.25	0	
18.75	17.5	0	
18.75	18.75	0	
18.75	20	0	
18.75	21.25	0	
18.75	22.5	0	
18.75	23.75	0	
18.75	25	0	
18.75	26.25	0	
18.75	27.5	0	
18.75	28.75	0	
18.75	30	0	
18.75	31.25	0	
18.75	32.5	0	
18.75	33.75	0	
18.75	35	0	
18.75	36.25	0	
18.75	37.5	0	
18.75	38.75	0	
18.75	40	0	
18.75	41.25	0	
18.75	42.5	0	
18.75	43.75	0	
18.75	45	0	
18.75	46.25	0	
18.75	47.5	0	
18.75	48.75	0	
18.75	50	0	
20	0	0	
20	1.25	0	
20	2.5	0	
20	3.75	0	
20	5	0	
20	6.25	0	
20	7.5	0	
20	8.75	0	
20	10	0	
20	11.25	0	
20	12.5	0	
20	13.75	0	
20	15	0	
20	16.25	0	
20	17.5	0	
20	18.75	0	
20	20	0	
20	21.25	0	
20	22.5	0	
20	23.75	0	
20	25	0	
20	26.25	0	
20	27.5	0	
20	28.75	0	
20	30	0	
20	31.25	0	
20	32.5	0	
20	33.75	0	
20	35	0	
20	36.25	0	
20	37.5	0	
20	38.75	0	
20	40	0	
20	41.25	0	
20	42.5	0	
20	43.75	0	
20	45	0	
20	46.25	0	
20	47.5	0	
20	48.75	0	
20	50	0	
21.25	0	0	
21.25	1.25	0	
21.25	2.5	0	
21.25	3.75	0	
21.25	5	0	
21.25	6.25	0	
21.25	7.5	0	
21.25	8.75	0	
21.25	10	0	
21.25	11.25	0	
21.25	12.5	0	
21.25	13.75	0	
21.25	15	0	
21.25	16.25	0	
21.25	17.5	0	
21.25	18.75	0	
21.25	20	0	
21.25	21.25	0	
21.25	22.5	0	
21.25	23.75	0	
21.25	25	0	
21.25	26.25	0	
21.25	27.5	0	
21.25	28.75	0	
21.25	30	0	
21.25	31.25	0	
21.25	32.5	0	
21.25	33.75	0	
21.25	35	0	
21.25	36.25	0	
21.25	37.5	0	
21.25	38.75	0	
21.25	40	0	
21.25	41.25	0	
21.25	42.5	0	
21.25	43.75	0	
21.25	45	0	
21.25	46.25	0	
21.25	47.5	0	
21.25	48.75	0	
21.25	50	0	
22.5	0	0	
22.5	1.25	0	
22.5	2.5	0	
22.5	3.75	0	
22.5	5	0	
22.5	6.25	0	
22.5	7.5	0	
22.5	8.75	0	
22.5	10	0	
22.5	11.25	0	
22.5	12.5	0	
22.5	13.75	0	
22.5	15	0	
22.5	16.25	0	
22.5	17.5	0	
22.5	18.75	0	
22.5	20	0	
22.5	21.25	0	
22.5	22.5	0	
22.5	23.75	0	
22.5	25	0	
22.5	26.25	0	
22.5	27.5	0	
22.5	28.75	0	
22.5	30	0	
22.5	31.25	0	
22.5	32.5	0	
22.5	33.75	0	
22.5	35	0	
22.5	36.25	0	
22.5	37.5	0	
22.5	38.75	0	
22.5	40	0	
22.5	41.25	0	
22.5	42.5	0	
22.5	43.75	0	
22.5	45	0	
22.5	46.25	0	
22.5	47.5	0	
22.5	48.75	0	
22.5	50	0	
23.75	0	0	
23.75	1.25	0	
23.75	2.5	0	
23.75	3.75	0	
23.75	5	0	
23.75	6.25	0	
23.75	7.5	0	
23.75	8.75	0	
23.75	10	0	
23.75	11.25	0	
23.75	12.5	0	
23.75	13.75	0	
23.75	15	0	
23.75	16.25	0	
23.75	17.5	0	
23.75	18.75	0	
23.75	20	0	
23.75	21.25	0	
23.75	22.5	0	
23.75	23.75	0	
23.75	25	0	
23.75	26.25	0	
23.75	27.5	0	
23.75	28.75	0	
23.75	30	0	
[...]
POINT_DATA	14721
VECTORS u0 float
1.08651e-016	-0.00172121	0	
1.14888e-016	-0.00172383	0	
1.21125e-016	-0.00172659	0	
5.74794e-017	-0.00173996	0	
6.75167e-017	-0.00175416	0	
6.82884e-017	-0.00176853	0	
6.90563e-017	-0.00178298	0	
7.5121e-017	-0.00179762	0	
9.09553e-017	-0.00181277	0	
1.18801e-016	-0.00182905	0	
1.36871e-016	-0.00184683	0	
1.87626e-016	-0.00186446	0	
1.55835e-016	-0.00186847	0	
1.23796e-016	-0.00187164	0	
9.81879e-017	-0.0018742	0	
7.91871e-017	-0.00187653	0	
6.55541e-017	-0.00187893	0	
5.5481e-017	-0.0018816	0	
4.77588e-017	-0.00188461	0	
4.1579e-017	-0.00188804	0	
3.64355e-017	-0.00189189	0	
3.19752e-017	-0.0018962	0	
2.79746e-017	-0.00190095	0	
2.42706e-017	-0.00190618	0	
2.075e-017	-0.00191187	0	
1.73333e-017	-0.00191805	0	
1.39629e-017	-0.00192473	0	
1.05938e-017	-0.00193193	0	
7.1768e-018	-0.00193968	0	
3.67194e-018	-0.00194802	0	
2.5838e-020	-0.00195698	0	
-3.82197e-018	-0.00196663	0	
-7.92018e-018	-0.00197703	0	
-1.23746e-017	-0.00198829	0	
-1.75906e-017	-0.00200056	0	
-2.53048e-017	-0.002014	0	
-3.87767e-017	-0.00202878	0	
7.60766e-017	-0.00204515	0	
-2.59921e-017	-0.00204659	0	
-1.07873e-016	-0.00204768	0	
-5.35059e-016	-0.00205538	0	
5.93214e-006	-0.00172138	0	
6.2727e-006	-0.001724	0	
6.61361e-006	-0.00172676	0	
8.58664e-006	-0.00174009	0	
9.1348e-006	-0.00175419	0	
9.19458e-006	-0.00176846	0	
9.30707e-006	-0.00178289	0	
9.7021e-006	-0.0017976	0	
1.06297e-005	-0.0018127	0	
1.25044e-005	-0.00182862	0	
1.40184e-005	-0.00184617	0	
1.02465e-005	-0.00186374	0	
8.51252e-006	-0.00186773	0	
6.68411e-006	-0.00187075	0	
5.36506e-006	-0.00187321	0	
4.52424e-006	-0.00187553	0	
4.00495e-006	-0.00187797	0	
3.69448e-006	-0.00188067	0	
3.51523e-006	-0.00188374	0	
3.41948e-006	-0.0018872	0	
3.37735e-006	-0.00189108	0	
3.37027e-006	-0.00189541	0	
3.38675e-006	-0.00190018	0	
3.41981e-006	-0.0019054	0	
3.46541e-006	-0.00191109	0	
3.52147e-006	-0.00191726	0	
3.58729e-006	-0.00192391	0	
3.66312e-006	-0.00193108	0	
3.74988e-006	-0.00193878	0	
3.84886e-006	-0.00194706	0	
3.96161e-006	-0.00195594	0	
4.09036e-006	-0.00196549	0	
4.23923e-006	-0.00197576	0	
4.41622e-006	-0.00198683	0	
4.62169e-006	-0.00199881	0	
4.7898e-006	-0.00201183	0	
4.73839e-006	-0.00202601	0	
4.312e-006	-0.00204122	0	
-1.13695e-006	-0.0020422	0	
-5.71983e-006	-0.00204101	0	
-1.35744e-005	-0.00203782	0	
1.18641e-005	-0.00172189	0	
1.25475e-005	-0.00172451	0	
1.32255e-005	-0.00172727	0	
1.75312e-005	-0.00174025	0	
1.81773e-005	-0.00175395	0	
1.82608e-005	-0.00176791	0	
1.8644e-005	-0.00178242	0	
1.9414e-005	-0.0017975	0	
2.09252e-005	-0.00181306	0	
2.40621e-005	-0.00182837	0	
2.95285e-005	-0.00184517	0	
2.07114e-005	-0.0018616	0	
1.66194e-005	-0.00186527	0	
1.30373e-005	-0.0018679	0	
1.05554e-005	-0.00187015	0	
8.99502e-006	-0.00187251	0	
8.01801e-006	-0.00187508	0	
7.42116e-006	-0.00187793	0	
7.06807e-006	-0.00188113	0	
6.87283e-006	-0.00188471	0	
6.7805e-006	-0.00188868	0	
6.75632e-006	-0.00189307	0	
6.7784e-006	-0.00189787	0	
6.83317e-006	-0.0019031	0	
6.91254e-006	-0.00190877	0	
7.01215e-006	-0.00191489	0	
7.1302e-006	-0.00192147	0	
7.2667e-006	-0.00192854	0	
7.42275e-006	-0.00193611	0	
7.5998e-006	-0.00194421	0	
7.79862e-006	-0.00195288	0	
8.01853e-006	-0.00196214	0	
8.25689e-006	-0.00197205	0	
8.51344e-006	-0.00198261	0	
8.77878e-006	-0.00199383	0	
8.9905e-006	-0.00200574	0	
8.58069e-006	-0.00201837	0	
6.63335e-006	-0.00203104	0	
-3.4906e-006	-0.00203103	0	
-1.22505e-005	-0.00202927	0	
-2.34276e-005	-0.00202588	0	
1.77943e-005	-0.00172275	0	
1.88135e-005	-0.00172536	0	
1.98312e-005	-0.00172811	0	
2.71382e-005	-0.00173932	0	
2.68331e-005	-0.0017524	0	
2.72528e-005	-0.00176602	0	
2.81648e-005	-0.00178096	0	
2.94817e-005	-0.00179682	0	
3.16103e-005	-0.00181367	0	
3.56452e-005	-0.00183221	0	
5.34966e-005	-0.00185923	0	
3.41952e-005	-0.00185848	0	
2.39803e-005	-0.00186015	0	
1.88408e-005	-0.00186244	0	
1.55461e-005	-0.00186488	0	
1.34322e-005	-0.00186749	0	
1.20746e-005	-0.00187034	0	
1.12199e-005	-0.00187346	0	
1.06962e-005	-0.00187688	0	
1.03913e-005	-0.00188064	0	
1.02322e-005	-0.00188475	0	
1.01713e-005	-0.00188923	0	
1.01779e-005	-0.00189408	0	
1.02326e-005	-0.00189932	0	
1.03231e-005	-0.00190495	0	
1.04424e-005	-0.001911	0	
1.05868e-005	-0.00191746	0	
1.07553e-005	-0.00192436	0	
1.0948e-005	-0.00193172	0	
1.11653e-005	-0.00193955	0	
1.14049e-005	-0.00194788	0	
1.16583e-005	-0.00195672	0	
1.19044e-005	-0.0019661	0	
1.21055e-005	-0.00197601	0	
1.22064e-005	-0.00198635	0	
1.21785e-005	-0.00199682	0	
1.14276e-005	-0.00200753	0	
6.628e-006	-0.00201695	0	
-6.51198e-006	-0.00201637	0	
-1.8395e-005	-0.00201464	0	
-3.18194e-005	-0.00201181	0	
2.37434e-005	-0.00172398	0	
2.50601e-005	-0.00172658	0	
2.65045e-005	-0.00172923	0	
3.93072e-005	-0.00172714	0	
3.59577e-005	-0.00174708	0	
3.65643e-005	-0.00176255	0	
3.79224e-005	-0.00177791	0	
4.00121e-005	-0.00179426	0	
4.28675e-005	-0.00181188	0	
4.67798e-005	-0.00182968	0	
5.3766e-005	-0.00184652	0	
4.09406e-005	-0.00184798	0	
3.05775e-005	-0.00185135	0	
2.44367e-005	-0.00185454	0	
2.0493e-005	-0.00185756	0	
1.79175e-005	-0.00186065	0	
1.62293e-005	-0.00186391	0	
1.51327e-005	-0.00186739	0	
1.44323e-005	-0.00187111	0	
1.39995e-005	-0.00187511	0	
1.37486e-005	-0.00187939	0	
1.36229e-005	-0.00188398	0	
1.35846e-005	-0.00188888	0	
1.36087e-005	-0.00189412	0	
1.36789e-005	-0.00189971	0	
1.37847e-005	-0.00190565	0	
1.39198e-005	-0.00191196	0	
1.40809e-005	-0.00191864	0	
1.42661e-005	-0.00192572	0	
1.44737e-005	-0.00193319	0	
1.46989e-005	-0.00194108	0	
1.4927e-005	-0.0019494	0	
1.51225e-005	-0.00195817	0	
1.52076e-005	-0.00196739	0	
1.50658e-005	-0.00197706	0	
1.46299e-005	-0.00198716	0	
1.53779e-005	-0.00199873	0	
3.77079e-006	-0.00200012	0	
-9.78976e-006	-0.00199994	0	
-2.3648e-005	-0.00199854	0	
-3.87866e-005	-0.00199616	0	
2.98032e-005	-0.00172549	0	
3.12819e-005	-0.00172813	0	
3.28648e-005	-0.00173081	0	
3.99148e-005	-0.00173245	0	
4.53771e-005	-0.00174449	0	
4.56214e-005	-0.00175825	0	
4.76305e-005	-0.00177318	0	
5.05044e-005	-0.00178941	0	
5.31356e-005	-0.00180624	0	
5.54858e-005	-0.0018225	0	
5.63566e-005	-0.00183681	0	
4.59497e-005	-0.00183882	0	
3.64919e-005	-0.00184176	0	
2.98617e-005	-0.00184515	0	
2.54493e-005	-0.00184868	0	
2.25027e-005	-0.00185231	0	
2.05212e-005	-0.00185605	0	
1.91878e-005	-0.00185994	0	
1.82964e-005	-0.001864	0	
1.77099e-005	-0.00186825	0	
1.73358e-005	-0.00187272	0	
1.7111e-005	-0.00187743	0	
1.69921e-005	-0.00188239	0	
1.69492e-005	-0.00188762	0	
1.69614e-005	-0.00189314	0	
1.70142e-005	-0.00189895	0	
1.70976e-005	-0.00190506	0	
1.72047e-005	-0.00191148	0	
1.73305e-005	-0.00191822	0	
1.74707e-005	-0.00192528	0	
1.76192e-005	-0.00193266	0	
1.77623e-005	-0.00194037	0	
1.78681e-005	-0.00194843	0	
1.78563e-005	-0.00195687	0	
1.76035e-005	-0.00196577	0	
1.69491e-005	-0.00197511	0	
1.60623e-005	-0.00198453	0	
1.47102e-006	-0.00198433	0	
-1.31587e-005	-0.00198326	0	
-2.8399e-005	-0.00198168	0	
-4.46462e-005	-0.00197954	0	
3.60261e-005	-0.00172708	0	
3.74755e-005	-0.00172976	0	
3.89893e-005	-0.00173236	0	
4.58258e-005	-0.00173332	0	
5.55502e-005	-0.00173261	0	
5.38197e-005	-0.00175192	0	
5.71177e-005	-0.00176757	0	
6.065e-005	-0.00178316	0	
6.26074e-005	-0.00179884	0	
6.23575e-005	-0.00181331	0	
6.10302e-005	-0.00182665	0	
5.01712e-005	-0.00182859	0	
4.13555e-005	-0.00183121	0	
3.49086e-005	-0.00183472	0	
3.03633e-005	-0.00183868	0	
2.71869e-005	-0.00184282	0	
2.49575e-005	-0.00184705	0	
2.33898e-005	-0.00185136	0	
2.22886e-005	-0.00185575	0	
2.1519e-005	-0.00186026	0	
2.0987e-005	-0.00186491	0	
2.06258e-005	-0.00186972	0	
2.03877e-005	-0.00187472	0	
2.02382e-005	-0.00187992	0	
2.01516e-005	-0.00188534	0	
2.01089e-005	-0.00189099	0	
2.00952e-005	-0.00189688	0	
2.00986e-005	-0.00190301	0	
2.01095e-005	-0.00190938	0	
2.01198e-005	-0.00191599	0	
2.01215e-005	-0.00192281	0	
2.01056e-005	-0.00192985	0	
2.00537e-005	-0.0019371	0	
1.99169e-005	-0.00194456	0	
1.95208e-005	-0.00195231	0	
1.82852e-005	-0.00196026	0	
1.55447e-005	-0.00196763	0	
-8.50292e-007	-0.00196703	0	
-1.66488e-005	-0.00196585	0	
-3.2822e-005	-0.00196423	0	
-4.98514e-005	-0.00196226	0	
4.24072e-005	-0.00172855	0	
4.36404e-005	-0.00173125	0	
4.49222e-005	-0.00173383	0	
5.0516e-005	-0.0017363	0	
5.57256e-005	-0.00173743	0	
6.15803e-005	-0.00174986	0	
6.55543e-005	-0.00176318	0	
7.05563e-005	-0.00177697	0	
7.06642e-005	-0.00178996	0	
6.82976e-005	-0.00180191	0	
6.58775e-005	-0.00181393	0	
5.38309e-005	-0.00181598	0	
4.56747e-005	-0.00181907	0	
3.97324e-005	-0.00182328	0	
3.52752e-005	-0.00182783	0	
3.19681e-005	-0.00183251	0	
2.9523e-005	-0.0018372	0	
2.77185e-005	-0.00184189	0	
2.63872e-005	-0.00184658	0	
2.54053e-005	-0.00185131	0	
2.46812e-005	-0.00185611	0	
2.4147e-005	-0.001861	0	
2.37515e-005	-0.001866	0	
2.34561e-005	-0.00187115	0	
2.32303e-005	-0.00187645	0	
2.30496e-005	-0.00188192	0	
2.28938e-005	-0.00188755	0	
2.27449e-005	-0.00189336	0	
2.2587e-005	-0.00189934	0	
2.24056e-005	-0.00190547	0	
2.21884e-005	-0.00191173	0	
2.19258e-005	-0.0019181	0	
2.16102e-005	-0.00192452	0	
2.12301e-005	-0.00193094	0	
2.06402e-005	-0.00193737	0	
1.89812e-005	-0.00194388	0	
1.39426e-005	-0.00194962	0	
-3.33017e-006	-0.00194884	0	
-2.00218e-005	-0.00194769	0	
-3.692e-005	-0.00194619	0	
-5.45442e-005	-0.00194439	0	
4.89344e-005	-0.00172971	0	
4.97874e-005	-0.00173244	0	
5.06836e-005	-0.00173499	0	
5.4861e-005	-0.00173733	0	
5.80524e-005	-0.00173904	0	
6.81037e-005	-0.00174923	0	
7.25721e-005	-0.0017616	0	
8.34123e-005	-0.00177847	0	
7.58248e-005	-0.00177895	0	
7.205e-005	-0.00178311	0	
6.8124e-005	-0.0017939	0	
5.75318e-005	-0.0018005	0	
5.02947e-005	-0.00180597	0	
4.46916e-005	-0.00181129	0	
4.02799e-005	-0.00181656	0	
3.68413e-005	-0.00182173	0	
3.41803e-005	-0.0018268	0	
3.21293e-005	-0.00183178	0	
3.05494e-005	-0.0018367	0	
2.93301e-005	-0.00184159	0	
2.83844e-005	-0.00184648	0	
2.76446e-005	-0.0018514	0	
2.70572e-005	-0.00185637	0	
2.65797e-005	-0.00186143	0	
2.61769e-005	-0.00186658	0	
2.58191e-005	-0.00187183	0	
2.548e-005	-0.0018772	0	
2.51349e-005	-0.00188267	0	
2.47605e-005	-0.00188825	0	
2.43346e-005	-0.00189391	0	
2.38368e-005	-0.00189962	0	
2.32521e-005	-0.00190535	0	
2.25761e-005	-0.00191105	0	
2.18193e-005	-0.00191668	0	
2.1046e-005	-0.00192217	0	
2.07782e-005	-0.00192751	0	
1.14784e-005	-0.00193089	0	
-5.97329e-006	-0.0019302	0	
-2.32515e-005	-0.00192911	0	
-4.07081e-005	-0.0019277	0	
-5.87672e-005	-0.00192607	0	
5.55885e-005	-0.0017304	0	
5.59332e-005	-0.00173315	0	
5.62765e-005	-0.00173566	0	
5.93502e-005	-0.00173835	0	
6.44311e-005	-0.00174042	0	
7.33309e-005	-0.00174441	0	
7.81332e-005	-0.00175126	0	
8.20889e-005	-0.00176333	0	
7.75234e-005	-0.0017703	0	
7.45128e-005	-0.00177597	0	
6.9843e-005	-0.00178148	0	
6.22204e-005	-0.00178744	0	
5.53864e-005	-0.00179369	0	
4.98286e-005	-0.00179965	0	
4.53488e-005	-0.00180533	0	
4.17436e-005	-0.00181081	0	
3.88572e-005	-0.00181611	0	
3.6553e-005	-0.00182126	0	
3.47137e-005	-0.0018263	0	
3.32403e-005	-0.00183126	0	
3.20516e-005	-0.00183617	0	
3.10808e-005	-0.00184107	0	
3.02732e-005	-0.00184596	0	
2.95828e-005	-0.00185089	0	
2.89707e-005	-0.00185585	0	
2.84017e-005	-0.00186087	0	
2.78438e-005	-0.00186594	0	
2.72659e-005	-0.00187106	0	
2.6637e-005	-0.00187623	0	
2.59266e-005	-0.00188142	0	
2.5106e-005	-0.00188662	0	
2.41543e-005	-0.00189178	0	
2.30773e-005	-0.00189688	0	
2.19512e-005	-0.00190187	0	
2.11324e-005	-0.00190703	0	
2.14579e-005	-0.00191261	0	
9.01681e-006	-0.00191268	0	
-8.74671e-006	-0.00191156	0	
-2.64175e-005	-0.00191035	0	
-4.42473e-005	-0.00190898	0	
-6.25815e-005	-0.00190746	0	
6.23504e-005	-0.00173052	0	
6.1984e-005	-0.00173327	0	
6.17336e-005	-0.00173567	0	
6.43299e-005	-0.00173926	0	
6.87716e-005	-0.00174294	0	
7.56163e-005	-0.00174687	0	
8.05541e-005	-0.0017515	0	
8.25717e-005	-0.00175655	0	
8.0285e-005	-0.00176184	0	
7.69348e-005	-0.00176723	0	
7.22589e-005	-0.00177219	0	
6.62624e-005	-0.0017774	0	
6.0171e-005	-0.00178306	0	
5.48115e-005	-0.00178883	0	
5.02964e-005	-0.00179449	0	
4.65442e-005	-0.00179998	0	
4.34485e-005	-0.0018053	0	
4.09019e-005	-0.00181048	0	
3.88062e-005	-0.00181552	0	
3.70745e-005	-0.00182046	0	
3.56316e-005	-0.00182532	0	
3.44135e-005	-0.00183012	0	
3.33649e-005	-0.00183489	0	
3.2438e-005	-0.00183964	0	
3.15903e-005	-0.00184439	0	
3.07826e-005	-0.00184914	0	
2.99772e-005	-0.0018539	0	
2.91372e-005	-0.00185866	0	
2.82248e-005	-0.00186341	0	
2.72019e-005	-0.00186814	0	
2.60314e-005	-0.00187283	0	
2.46852e-005	-0.00187745	0	
2.31622e-005	-0.00188195	0	
2.15514e-005	-0.0018863	0	
2.01165e-005	-0.00189024	0	
1.96199e-005	-0.00189351	0	
6.32741e-006	-0.00189387	0	
-1.16818e-005	-0.00189275	0	
-2.95673e-005	-0.00189148	0	
-4.7588e-005	-0.00189012	0	
-6.60557e-005	-0.00188871	0	
6.93669e-005	-0.00173	0	
6.79064e-005	-0.0017328	0	
6.7676e-005	-0.00173477	0	
6.84069e-005	-0.00173556	0	
7.21673e-005	-0.00174021	0	
7.78507e-005	-0.00174439	0	
8.20785e-005	-0.00174814	0	
8.35041e-005	-0.00175163	0	
8.21725e-005	-0.00175537	0	
7.90827e-005	-0.00175951	0	
7.4836e-005	-0.00176383	0	
6.97137e-005	-0.00176845	0	
6.43732e-005	-0.00177347	0	
5.93634e-005	-0.00177873	0	
5.49248e-005	-0.00178406	0	
5.10986e-005	-0.00178933	0	
4.78416e-005	-0.00179449	0	
4.50842e-005	-0.00179954	0	
4.2751e-005	-0.00180447	0	
4.07693e-005	-0.00180929	0	
3.90721e-005	-0.00181402	0	
3.75995e-005	-0.00181867	0	
3.62977e-005	-0.00182326	0	
3.5118e-005	-0.00182779	0	
3.40156e-005	-0.00183229	0	
3.29478e-005	-0.00183675	0	
3.18727e-005	-0.00184117	0	
3.0748e-005	-0.00184556	0	
2.95299e-005	-0.00184989	0	
2.81731e-005	-0.00185416	0	
2.66311e-005	-0.00185834	0	
2.48628e-005	-0.0018624	0	
2.28339e-005	-0.0018663	0	
2.05755e-005	-0.00186995	0	
1.81357e-005	-0.00187328	0	
1.69217e-005	-0.00187635	0	
3.57466e-006	-0.00187521	0	
-1.47302e-005	-0.00187387	0	
-3.26958e-005	-0.00187254	0	
-5.07519e-005	-0.00187122	0	
-6.92235e-005	-0.00186991	0	
7.69966e-005	-0.00172803	0	
7.37778e-005	-0.00173104	0	
7.07783e-005	-0.00173322	0	
6.83124e-005	-0.00173361	0	
7.54648e-005	-0.00173669	0	
8.03721e-005	-0.00174022	0	
8.3535e-005	-0.00174337	0	
8.46155e-005	-0.00174617	0	
8.36021e-005	-0.00174909	0	
8.09856e-005	-0.00175234	0	
7.724e-005	-0.00175596	0	
7.27746e-005	-0.00175997	0	
6.80312e-005	-0.00176436	0	
6.34019e-005	-0.00176906	0	
5.91263e-005	-0.00177391	0	
5.53037e-005	-0.00177881	0	
5.19459e-005	-0.00178369	0	
4.90216e-005	-0.00178849	0	
4.6481e-005	-0.00179321	0	
4.42676e-005	-0.00179783	0	
4.23251e-005	-0.00180235	0	
4.05994e-005	-0.00180679	0	
3.90397e-005	-0.00181115	0	
3.7598e-005	-0.00181544	0	
3.62283e-005	-0.00181965	0	
3.48855e-005	-0.0018238	0	
3.35244e-005	-0.00182788	0	
3.20979e-005	-0.00183187	0	
3.05564e-005	-0.00183578	0	
2.88468e-005	-0.00183958	0	
2.69118e-005	-0.00184324	0	
2.46901e-005	-0.00184672	0	
2.21067e-005	-0.00184997	0	
1.90948e-005	-0.00185289	0	
1.53186e-005	-0.00185504	0	
1.00387e-005	-0.00185607	0	
3.40201e-007	-0.0018563	0	
-1.78818e-005	-0.00185496	0	
-3.5785e-005	-0.00185366	0	
-5.37446e-005	-0.00185239	0	
-7.20895e-005	-0.00185118	0	
8.4828e-005	-0.00172367	0	
7.96335e-005	-0.00172658	0	
7.35926e-005	-0.00172874	0	
6.86872e-005	-0.00173012	0	
7.86197e-005	-0.00173316	0	
8.27911e-005	-0.00173559	0	
8.51698e-005	-0.00173789	0	
8.58644e-005	-0.0017401	0	
8.49615e-005	-0.00174244	0	
8.26997e-005	-0.00174509	0	
7.94239e-005	-0.00174812	0	
7.54848e-005	-0.00175156	0	
7.12283e-005	-0.00175538	0	
6.69546e-005	-0.00175952	0	
6.28763e-005	-0.00176388	0	
5.91116e-005	-0.00176834	0	
5.57061e-005	-0.00177285	0	
5.26593e-005	-0.00177733	0	
4.9945e-005	-0.00178176	0	
4.7524e-005	-0.00178611	0	
4.53512e-005	-0.00179038	0	
4.33802e-005	-0.00179456	0	
4.15643e-005	-0.00179866	0	
3.98575e-005	-0.00180266	0	
3.8214e-005	-0.00180657	0	
3.65874e-005	-0.00181039	0	
3.49295e-005	-0.0018141	0	
3.31892e-005	-0.00181771	0	
3.1311e-005	-0.00182119	0	
2.92333e-005	-0.00182452	0	
2.68854e-005	-0.00182766	0	
2.41824e-005	-0.00183058	0	
2.10021e-005	-0.00183318	0	
1.71577e-005	-0.00183535	0	
1.22552e-005	-0.00183683	0	
5.5319e-006	-0.00183743	0	
-3.17622e-006	-0.00183771	0	
-2.11326e-005	-0.00183629	0	
-3.88288e-005	-0.00183498	0	
-5.65726e-005	-0.00183377	0	
-7.46582e-005	-0.00183267	0	
9.22171e-005	-0.00171729	0	
8.54102e-005	-0.00172005	0	
7.85717e-005	-0.00172224	0	
7.78764e-005	-0.00172529	0	
8.1927e-005	-0.00172787	0	
8.50429e-005	-0.00172972	0	
8.68487e-005	-0.00173144	0	
8.72509e-005	-0.00173324	0	
8.63592e-005	-0.00173519	0	
8.43357e-005	-0.00173742	0	
8.14256e-005	-0.00174	0	
7.79035e-005	-0.00174296	0	
7.40412e-005	-0.00174629	0	
7.00782e-005	-0.00174992	0	
6.61976e-005	-0.00175379	0	
6.25179e-005	-0.00175781	0	
5.91014e-005	-0.00176191	0	
5.59684e-005	-0.00176603	0	
5.31118e-005	-0.00177012	0	
5.05076e-005	-0.00177417	0	
4.81225e-005	-0.00177814	0	
4.59177e-005	-0.00178203	0	
4.3852e-005	-0.00178582	0	
4.18822e-005	-0.00178952	0	
3.99638e-005	-0.00179311	0	
3.80499e-005	-0.00179659	0	
3.60904e-005	-0.00179994	0	
3.40306e-005	-0.00180316	0	
3.18089e-005	-0.00180623	0	
2.9355e-005	-0.00180911	0	
2.65852e-005	-0.00181177	0	
2.33948e-005	-0.00181416	0	
1.96347e-005	-0.00181621	0	
1.50621e-005	-0.00181783	0	
9.27781e-006	-0.00181893	0	
1.81004e-006	-0.00181945	0	
-6.89234e-006	-0.00181942	0	
-2.4502e-005	-0.00181793	0	
-4.18238e-005	-0.00181666	0	
-5.92462e-005	-0.00181554	0	
-7.69572e-005	-0.00181452	0	
9.92501e-005	-0.00170963	0	
9.12099e-005	-0.00171236	0	
8.32914e-005	-0.00171463	0	
8.36455e-005	-0.00171743	0	
8.55194e-005	-0.00172011	0	
8.75483e-005	-0.00172212	0	
8.87157e-005	-0.00172381	0	
8.88113e-005	-0.00172546	0	
8.78586e-005	-0.00172721	0	
8.59663e-005	-0.00172917	0	
8.33106e-005	-0.00173143	0	
8.00993e-005	-0.00173401	0	
7.65443e-005	-0.00173691	0	
7.28375e-005	-0.00174011	0	
6.91341e-005	-0.00174353	0	
6.55445e-005	-0.00174712	0	
6.21363e-005	-0.00175081	0	
5.8942e-005	-0.00175455	0	
5.5968e-005	-0.00175829	0	
5.32027e-005	-0.001762	0	
5.0623e-005	-0.00176565	0	
4.81978e-005	-0.00176923	0	
4.58914e-005	-0.00177271	0	
4.36646e-005	-0.00177608	0	
4.14746e-005	-0.00177934	0	
3.92753e-005	-0.00178248	0	
3.70156e-005	-0.00178548	0	
3.46378e-005	-0.00178832	0	
3.20755e-005	-0.001791	0	
2.92501e-005	-0.00179347	0	
2.60672e-005	-0.00179571	0	
2.24102e-005	-0.00179766	0	
1.81301e-005	-0.00179925	0	
1.30146e-005	-0.00180044	0	
6.70299e-006	-0.0018013	0	
-1.57689e-006	-0.00180179	0	
-1.08491e-005	-0.0018014	0	
-2.78241e-005	-0.00179997	0	
-4.47081e-005	-0.00179885	0	
-6.17836e-005	-0.00179784	0	
-7.90592e-005	-0.00179688	0	
0.000106083	-0.00170091	0	
9.70363e-005	-0.0017036	0	
8.81137e-005	-0.0017059	0	
8.85069e-005	-0.00170858	0	
8.94341e-005	-0.00171114	0	
9.04086e-005	-0.0017133	0	
9.08871e-005	-0.00171511	0	
9.06073e-005	-0.00171678	0	
8.95081e-005	-0.00171846	0	
8.76449e-005	-0.00172027	0	
8.51368e-005	-0.00172231	0	
8.21362e-005	-0.0017246	0	
7.8805e-005	-0.00172716	0	
7.52956e-005	-0.00172998	0	
7.17368e-005	-0.001733	0	
6.82268e-005	-0.0017362	0	
6.48318e-005	-0.0017395	0	
6.15897e-005	-0.00174287	0	
5.85155e-005	-0.00174625	0	
5.56066e-005	-0.00174962	0	
5.2848e-005	-0.00175293	0	
5.02158e-005	-0.00175618	0	
4.76797e-005	-0.00175934	0	
4.52043e-005	-0.00176239	0	
4.27498e-005	-0.00176533	0	
4.02716e-005	-0.00176813	0	
3.7719e-005	-0.00177078	0	
3.50333e-005	-0.00177328	0	
3.21447e-005	-0.00177559	0	
2.89687e-005	-0.0017777	0	
2.54024e-005	-0.00177959	0	
2.13221e-005	-0.00178119	0	
1.65884e-005	-0.00178247	0	
1.10254e-005	-0.00178338	0	
4.45465e-006	-0.00178382	0	
-4.13794e-006	-0.00178335	0	
-1.60616e-005	-0.00178348	0	
-3.09675e-005	-0.00178277	0	
-4.74285e-005	-0.00178179	0	
-6.42354e-005	-0.00178078	0	
-8.11064e-005	-0.00177982	0	
0.000112732	-0.00169124	0	
0.000102811	-0.00169387	0	
9.30223e-005	-0.00169618	0	
9.31115e-005	-0.00169888	0	
9.33366e-005	-0.00170142	0	
9.35139e-005	-0.00170365	0	
9.3351e-005	-0.00170558	0	
9.26481e-005	-0.00170731	0	
9.1327e-005	-0.00170899	0	
8.94022e-005	-0.00171073	0	
8.69463e-005	-0.00171261	0	
8.40657e-005	-0.00171468	0	
8.08806e-005	-0.00171697	0	
7.75092e-005	-0.00171947	0	
7.40561e-005	-0.00172216	0	
7.06053e-005	-0.00172499	0	
6.72177e-005	-0.00172793	0	
6.3932e-005	-0.00173094	0	
6.07673e-005	-0.00173398	0	